<?xml version="1.0"?> 
<VTKFile type="UnstructuredGrid"> 
   <UnstructuredGrid> 
      <Piece NumberOfPoints="6000"  NumberOfCells="1500">  
          <Points>  
             <DataArray type="Float64" NumberOfComponents="3" format="ascii">   
-500.0   0.0   0.0
-450.0   0.0   0.0
-500.0   30.0   0.0
-500.0   0.0   16.666666666666668
-450.0   0.0   0.0
-450.0   30.0   0.0
-500.0   30.0   0.0
-450.0   30.0   16.666666666666668
-500.0   0.0   16.666666666666668
-500.0   30.0   16.666666666666668
-450.0   30.0   16.666666666666668
-500.0   30.0   0.0
-500.0   0.0   16.666666666666668
-450.0   30.0   16.666666666666668
-450.0   0.0   16.666666666666668
-450.0   0.0   0.0
-500.0   0.0   16.666666666666668
-450.0   30.0   16.666666666666668
-450.0   0.0   0.0
-500.0   30.0   0.0
-500.0   0.0   16.666666666666668
-450.0   0.0   16.666666666666668
-500.0   30.0   16.666666666666668
-500.0   0.0   33.333333333333336
-450.0   0.0   16.666666666666668
-450.0   30.0   16.666666666666668
-500.0   30.0   16.666666666666668
-450.0   30.0   33.333333333333336
-500.0   0.0   33.333333333333336
-500.0   30.0   33.333333333333336
-450.0   30.0   33.333333333333336
-500.0   30.0   16.666666666666668
-500.0   0.0   33.333333333333336
-450.0   30.0   33.333333333333336
-450.0   0.0   33.333333333333336
-450.0   0.0   16.666666666666668
-500.0   0.0   33.333333333333336
-450.0   30.0   33.333333333333336
-450.0   0.0   16.666666666666668
-500.0   30.0   16.666666666666668
-500.0   0.0   33.333333333333336
-450.0   0.0   33.333333333333336
-500.0   30.0   33.333333333333336
-500.0   0.0   50.0
-450.0   0.0   33.333333333333336
-450.0   30.0   33.333333333333336
-500.0   30.0   33.333333333333336
-450.0   30.0   50.0
-500.0   0.0   50.0
-500.0   30.0   50.0
-450.0   30.0   50.0
-500.0   30.0   33.333333333333336
-500.0   0.0   50.0
-450.0   30.0   50.0
-450.0   0.0   50.0
-450.0   0.0   33.333333333333336
-500.0   0.0   50.0
-450.0   30.0   50.0
-450.0   0.0   33.333333333333336
-500.0   30.0   33.333333333333336
-500.0   30.0   0.0
-450.0   30.0   0.0
-500.0   60.0   0.0
-500.0   30.0   16.666666666666668
-450.0   30.0   0.0
-450.0   60.0   0.0
-500.0   60.0   0.0
-450.0   60.0   16.666666666666668
-500.0   30.0   16.666666666666668
-500.0   60.0   16.666666666666668
-450.0   60.0   16.666666666666668
-500.0   60.0   0.0
-500.0   30.0   16.666666666666668
-450.0   60.0   16.666666666666668
-450.0   30.0   16.666666666666668
-450.0   30.0   0.0
-500.0   30.0   16.666666666666668
-450.0   60.0   16.666666666666668
-450.0   30.0   0.0
-500.0   60.0   0.0
-500.0   30.0   16.666666666666668
-450.0   30.0   16.666666666666668
-500.0   60.0   16.666666666666668
-500.0   30.0   33.333333333333336
-450.0   30.0   16.666666666666668
-450.0   60.0   16.666666666666668
-500.0   60.0   16.666666666666668
-450.0   60.0   33.333333333333336
-500.0   30.0   33.333333333333336
-500.0   60.0   33.333333333333336
-450.0   60.0   33.333333333333336
-500.0   60.0   16.666666666666668
-500.0   30.0   33.333333333333336
-450.0   60.0   33.333333333333336
-450.0   30.0   33.333333333333336
-450.0   30.0   16.666666666666668
-500.0   30.0   33.333333333333336
-450.0   60.0   33.333333333333336
-450.0   30.0   16.666666666666668
-500.0   60.0   16.666666666666668
-500.0   30.0   33.333333333333336
-450.0   30.0   33.333333333333336
-500.0   60.0   33.333333333333336
-500.0   30.0   50.0
-450.0   30.0   33.333333333333336
-450.0   60.0   33.333333333333336
-500.0   60.0   33.333333333333336
-450.0   60.0   50.0
-500.0   30.0   50.0
-500.0   60.0   50.0
-450.0   60.0   50.0
-500.0   60.0   33.333333333333336
-500.0   30.0   50.0
-450.0   60.0   50.0
-450.0   30.0   50.0
-450.0   30.0   33.333333333333336
-500.0   30.0   50.0
-450.0   60.0   50.0
-450.0   30.0   33.333333333333336
-500.0   60.0   33.333333333333336
-500.0   60.0   0.0
-450.0   60.0   0.0
-500.0   90.0   0.0
-500.0   60.0   16.666666666666668
-450.0   60.0   0.0
-450.0   90.0   0.0
-500.0   90.0   0.0
-450.0   90.0   16.666666666666668
-500.0   60.0   16.666666666666668
-500.0   90.0   16.666666666666668
-450.0   90.0   16.666666666666668
-500.0   90.0   0.0
-500.0   60.0   16.666666666666668
-450.0   90.0   16.666666666666668
-450.0   60.0   16.666666666666668
-450.0   60.0   0.0
-500.0   60.0   16.666666666666668
-450.0   90.0   16.666666666666668
-450.0   60.0   0.0
-500.0   90.0   0.0
-500.0   60.0   16.666666666666668
-450.0   60.0   16.666666666666668
-500.0   90.0   16.666666666666668
-500.0   60.0   33.333333333333336
-450.0   60.0   16.666666666666668
-450.0   90.0   16.666666666666668
-500.0   90.0   16.666666666666668
-450.0   90.0   33.333333333333336
-500.0   60.0   33.333333333333336
-500.0   90.0   33.333333333333336
-450.0   90.0   33.333333333333336
-500.0   90.0   16.666666666666668
-500.0   60.0   33.333333333333336
-450.0   90.0   33.333333333333336
-450.0   60.0   33.333333333333336
-450.0   60.0   16.666666666666668
-500.0   60.0   33.333333333333336
-450.0   90.0   33.333333333333336
-450.0   60.0   16.666666666666668
-500.0   90.0   16.666666666666668
-500.0   60.0   33.333333333333336
-450.0   60.0   33.333333333333336
-500.0   90.0   33.333333333333336
-500.0   60.0   50.0
-450.0   60.0   33.333333333333336
-450.0   90.0   33.333333333333336
-500.0   90.0   33.333333333333336
-450.0   90.0   50.0
-500.0   60.0   50.0
-500.0   90.0   50.0
-450.0   90.0   50.0
-500.0   90.0   33.333333333333336
-500.0   60.0   50.0
-450.0   90.0   50.0
-450.0   60.0   50.0
-450.0   60.0   33.333333333333336
-500.0   60.0   50.0
-450.0   90.0   50.0
-450.0   60.0   33.333333333333336
-500.0   90.0   33.333333333333336
-500.0   90.0   0.0
-450.0   90.0   0.0
-500.0   120.0   0.0
-500.0   90.0   16.666666666666668
-450.0   90.0   0.0
-450.0   120.0   0.0
-500.0   120.0   0.0
-450.0   120.0   16.666666666666668
-500.0   90.0   16.666666666666668
-500.0   120.0   16.666666666666668
-450.0   120.0   16.666666666666668
-500.0   120.0   0.0
-500.0   90.0   16.666666666666668
-450.0   120.0   16.666666666666668
-450.0   90.0   16.666666666666668
-450.0   90.0   0.0
-500.0   90.0   16.666666666666668
-450.0   120.0   16.666666666666668
-450.0   90.0   0.0
-500.0   120.0   0.0
-500.0   90.0   16.666666666666668
-450.0   90.0   16.666666666666668
-500.0   120.0   16.666666666666668
-500.0   90.0   33.333333333333336
-450.0   90.0   16.666666666666668
-450.0   120.0   16.666666666666668
-500.0   120.0   16.666666666666668
-450.0   120.0   33.333333333333336
-500.0   90.0   33.333333333333336
-500.0   120.0   33.333333333333336
-450.0   120.0   33.333333333333336
-500.0   120.0   16.666666666666668
-500.0   90.0   33.333333333333336
-450.0   120.0   33.333333333333336
-450.0   90.0   33.333333333333336
-450.0   90.0   16.666666666666668
-500.0   90.0   33.333333333333336
-450.0   120.0   33.333333333333336
-450.0   90.0   16.666666666666668
-500.0   120.0   16.666666666666668
-500.0   90.0   33.333333333333336
-450.0   90.0   33.333333333333336
-500.0   120.0   33.333333333333336
-500.0   90.0   50.0
-450.0   90.0   33.333333333333336
-450.0   120.0   33.333333333333336
-500.0   120.0   33.333333333333336
-450.0   120.0   50.0
-500.0   90.0   50.0
-500.0   120.0   50.0
-450.0   120.0   50.0
-500.0   120.0   33.333333333333336
-500.0   90.0   50.0
-450.0   120.0   50.0
-450.0   90.0   50.0
-450.0   90.0   33.333333333333336
-500.0   90.0   50.0
-450.0   120.0   50.0
-450.0   90.0   33.333333333333336
-500.0   120.0   33.333333333333336
-500.0   120.0   0.0
-450.0   120.0   0.0
-500.0   150.0   0.0
-500.0   120.0   16.666666666666668
-450.0   120.0   0.0
-450.0   150.0   0.0
-500.0   150.0   0.0
-450.0   150.0   16.666666666666668
-500.0   120.0   16.666666666666668
-500.0   150.0   16.666666666666668
-450.0   150.0   16.666666666666668
-500.0   150.0   0.0
-500.0   120.0   16.666666666666668
-450.0   150.0   16.666666666666668
-450.0   120.0   16.666666666666668
-450.0   120.0   0.0
-500.0   120.0   16.666666666666668
-450.0   150.0   16.666666666666668
-450.0   120.0   0.0
-500.0   150.0   0.0
-500.0   120.0   16.666666666666668
-450.0   120.0   16.666666666666668
-500.0   150.0   16.666666666666668
-500.0   120.0   33.333333333333336
-450.0   120.0   16.666666666666668
-450.0   150.0   16.666666666666668
-500.0   150.0   16.666666666666668
-450.0   150.0   33.333333333333336
-500.0   120.0   33.333333333333336
-500.0   150.0   33.333333333333336
-450.0   150.0   33.333333333333336
-500.0   150.0   16.666666666666668
-500.0   120.0   33.333333333333336
-450.0   150.0   33.333333333333336
-450.0   120.0   33.333333333333336
-450.0   120.0   16.666666666666668
-500.0   120.0   33.333333333333336
-450.0   150.0   33.333333333333336
-450.0   120.0   16.666666666666668
-500.0   150.0   16.666666666666668
-500.0   120.0   33.333333333333336
-450.0   120.0   33.333333333333336
-500.0   150.0   33.333333333333336
-500.0   120.0   50.0
-450.0   120.0   33.333333333333336
-450.0   150.0   33.333333333333336
-500.0   150.0   33.333333333333336
-450.0   150.0   50.0
-500.0   120.0   50.0
-500.0   150.0   50.0
-450.0   150.0   50.0
-500.0   150.0   33.333333333333336
-500.0   120.0   50.0
-450.0   150.0   50.0
-450.0   120.0   50.0
-450.0   120.0   33.333333333333336
-500.0   120.0   50.0
-450.0   150.0   50.0
-450.0   120.0   33.333333333333336
-500.0   150.0   33.333333333333336
-450.0   0.0   0.0
-400.0   0.0   0.0
-450.0   30.0   0.0
-450.0   0.0   16.666666666666668
-400.0   0.0   0.0
-400.0   30.0   0.0
-450.0   30.0   0.0
-400.0   30.0   16.666666666666668
-450.0   0.0   16.666666666666668
-450.0   30.0   16.666666666666668
-400.0   30.0   16.666666666666668
-450.0   30.0   0.0
-450.0   0.0   16.666666666666668
-400.0   30.0   16.666666666666668
-400.0   0.0   16.666666666666668
-400.0   0.0   0.0
-450.0   0.0   16.666666666666668
-400.0   30.0   16.666666666666668
-400.0   0.0   0.0
-450.0   30.0   0.0
-450.0   0.0   16.666666666666668
-400.0   0.0   16.666666666666668
-450.0   30.0   16.666666666666668
[...]
          <PointData>  
             <DataArray type="Float64" NumberOfComponents="3" Name="Strains" format="ascii">   
-0.0003760100737903978   0.0   -0.00024599612812169615
-0.0003760100737903978   0.0   -0.00024599612812169615
-0.0003760100737903978   0.0   -0.00024599612812169615
-0.0003760100737903978   0.0   -0.00024599612812169615
-0.00023933964718531321   4.1758196881524405e-05   6.842834349025592e-06
-0.00023933964718531321   4.1758196881524405e-05   6.842834349025592e-06
-0.00023933964718531321   4.1758196881524405e-05   6.842834349025592e-06
-0.00023933964718531321   4.1758196881524405e-05   6.842834349025592e-06
-0.00023466034591180179   0.0   -0.0002320690929597754
-0.00023466034591180179   0.0   -0.0002320690929597754
-0.00023466034591180179   0.0   -0.0002320690929597754
-0.00023466034591180179   0.0   -0.0002320690929597754
-0.0003935791912424537   5.006258581285105e-05   2.7580977702681758e-06
-0.0003935791912424537   5.006258581285105e-05   2.7580977702681758e-06
-0.0003935791912424537   5.006258581285105e-05   2.7580977702681758e-06
-0.0003935791912424537   5.006258581285105e-05   2.7580977702681758e-06
-0.0003053352098510993   1.1605862634933952e-05   -0.00012124117064190546
-0.0003053352098510993   1.1605862634933952e-05   -0.00012124117064190546
-0.0003053352098510993   1.1605862634933952e-05   -0.00012124117064190546
-0.0003053352098510993   1.1605862634933952e-05   -0.00012124117064190546
-0.0003935791912424544   0.0   -0.0002621066444474861
-0.0003935791912424544   0.0   -0.0002621066444474861
-0.0003935791912424544   0.0   -0.0002621066444474861
-0.0003935791912424544   0.0   -0.0002621066444474861
-0.00023466034591180179   5.0062585812851105e-05   3.279564925797883e-05
-0.00023466034591180179   5.0062585812851105e-05   3.279564925797883e-05
-0.00023466034591180179   5.0062585812851105e-05   3.279564925797883e-05
-0.00023466034591180179   5.0062585812851105e-05   3.279564925797883e-05
-0.00023538058881676565   0.0   -0.00023776506391551182
-0.00023538058881676565   0.0   -0.00023776506391551182
-0.00023538058881676565   0.0   -0.00023776506391551182
-0.00023538058881676565   0.0   -0.00023776506391551182
-0.00040594464774150024   5.3621063865259984e-05   1.4335729306557614e-05
-0.00040594464774150024   5.3621063865259984e-05   1.4335729306557614e-05
-0.00040594464774150024   5.3621063865259984e-05   1.4335729306557614e-05
-0.00040594464774150024   5.3621063865259984e-05   1.4335729306557614e-05
-0.00031447989002960947   2.0284650443311893e-05   -0.00011810368549342474
-0.00031447989002960947   2.0284650443311893e-05   -0.00011810368549342474
-0.00031447989002960947   2.0284650443311893e-05   -0.00011810368549342474
-0.00031447989002960947   2.0284650443311893e-05   -0.00011810368549342474
-0.00040594464774150094   0.0   -0.00026993770223466786
-0.00040594464774150094   0.0   -0.00026993770223466786
-0.00040594464774150094   0.0   -0.00026993770223466786
-0.00040594464774150094   0.0   -0.00026993770223466786
-0.00023538058881676565   5.362106386526009e-05   4.650836762571368e-05
-0.00023538058881676565   5.362106386526009e-05   4.650836762571368e-05
-0.00023538058881676565   5.362106386526009e-05   4.650836762571368e-05
-0.00023538058881676565   5.362106386526009e-05   4.650836762571368e-05
-0.00023532276743219396   0.0   -0.00023921948287683527
-0.00023532276743219396   0.0   -0.00023921948287683527
-0.00023532276743219396   0.0   -0.00023921948287683527
-0.00023532276743219396   0.0   -0.00023921948287683527
-0.0004325252332588154   6.10433764611101e-05   5.282526762420215e-05
-0.0004325252332588154   6.10433764611101e-05   5.282526762420215e-05
-0.0004325252332588154   6.10433764611101e-05   5.282526762420215e-05
-0.0004325252332588154   6.10433764611101e-05   5.282526762420215e-05
-0.0003206337075868469   2.5598516131527133e-05   -0.00011239369229799545
-0.0003206337075868469   2.5598516131527133e-05   -0.00011239369229799545
-0.0003206337075868469   2.5598516131527133e-05   -0.00011239369229799545
-0.0003206337075868469   2.5598516131527133e-05   -0.00011239369229799545
-0.00023933964718531365   0.0   -0.00022094120999278152
-0.00023933964718531365   0.0   -0.00022094120999278152
-0.00023933964718531365   0.0   -0.00022094120999278152
-0.00023933964718531365   0.0   -0.00022094120999278152
-0.00010892896576864652   1.533523254971115e-05   5.61106523149017e-06
-0.00010892896576864652   1.533523254971115e-05   5.61106523149017e-06
-0.00010892896576864652   1.533523254971115e-05   5.61106523149017e-06
-0.00010892896576864652   1.533523254971115e-05   5.61106523149017e-06
-0.00010482331481379775   0.0   -0.00021898997612217642
-0.00010482331481379775   0.0   -0.00021898997612217642
-0.00010482331481379775   0.0   -0.00021898997612217642
-0.00010482331481379775   0.0   -0.00021898997612217642
-0.00023466034591180179   2.1798528062665003e-05   -1.567404112976867e-05
-0.00023466034591180179   2.1798528062665003e-05   -1.567404112976867e-05
-0.00023466034591180179   2.1798528062665003e-05   -1.567404112976867e-05
-0.00023466034591180179   2.1798528062665003e-05   -1.567404112976867e-05
-0.00017208148099955538   1.626028225504251e-06   -0.00010786864941454881
-0.00017208148099955538   1.626028225504251e-06   -0.00010786864941454881
-0.00017208148099955538   1.626028225504251e-06   -0.00010786864941454881
-0.00017208148099955538   1.626028225504251e-06   -0.00010786864941454881
-0.0002346603459118016   0.0   -0.0002320690929597752
-0.0002346603459118016   0.0   -0.0002320690929597752
-0.0002346603459118016   0.0   -0.0002320690929597752
-0.0002346603459118016   0.0   -0.0002320690929597752
-0.00010482331481379775   2.1798528062665003e-05   -2.5949242921697072e-06
-0.00010482331481379775   2.1798528062665003e-05   -2.5949242921697072e-06
-0.00010482331481379775   2.1798528062665003e-05   -2.5949242921697072e-06
-0.00010482331481379775   2.1798528062665003e-05   -2.5949242921697072e-06
-0.00010254135147882408   0.0   -0.0002217509805798548
-0.00010254135147882408   0.0   -0.0002217509805798548
-0.00010254135147882408   0.0   -0.0002217509805798548
-0.00010254135147882408   0.0   -0.0002217509805798548
-0.00023538058881676565   2.6690138892761662e-05   -1.6366335018942572e-05
-0.00023538058881676565   2.6690138892761662e-05   -1.6366335018942572e-05
-0.00023538058881676565   2.6690138892761662e-05   -1.6366335018942572e-05
-0.00023538058881676565   2.6690138892761662e-05   -1.6366335018942572e-05
-0.0001686008486953126   8.598426983267145e-06   -0.0001168108747423333
-0.0001686008486953126   8.598426983267145e-06   -0.0001168108747423333
-0.0001686008486953126   8.598426983267145e-06   -0.0001168108747423333
-0.0001686008486953126   8.598426983267145e-06   -0.0001168108747423333
-0.00023538058881676565   0.0   -0.00023776506391551182
-0.00023538058881676565   0.0   -0.00023776506391551182
-0.00023538058881676565   0.0   -0.00023776506391551182
-0.00023538058881676565   0.0   -0.00023776506391551182
-0.00010254135147882408   2.6690138892761662e-05   -3.522516832855807e-07
-0.00010254135147882408   2.6690138892761662e-05   -3.522516832855807e-07
-0.00010254135147882408   2.6690138892761662e-05   -3.522516832855807e-07
-0.00010254135147882408   2.6690138892761662e-05   -3.522516832855807e-07
-0.00010047310225219182   0.0   -0.0002205935477768742
-0.00010047310225219182   0.0   -0.0002205935477768742
-0.00010047310225219182   0.0   -0.0002205935477768742
-0.00010047310225219182   0.0   -0.0002205935477768742
-0.00023532276743219334   3.104322516660142e-05   -1.4470040910165001e-05
-0.00023532276743219334   3.104322516660142e-05   -1.4470040910165001e-05
-0.00023532276743219334   3.104322516660142e-05   -1.4470040910165001e-05
-0.00023532276743219334   3.104322516660142e-05   -1.4470040910165001e-05
-0.0001679268455344787   1.430959678219788e-05   -0.00011675640037571483
-0.0001679268455344787   1.430959678219788e-05   -0.00011675640037571483
-0.0001679268455344787   1.430959678219788e-05   -0.00011675640037571483
-0.0001679268455344787   1.430959678219788e-05   -0.00011675640037571483
-0.0001089289657686467   0.0   -0.0002117400704629548
-0.0001089289657686467   0.0   -0.0002117400704629548
-0.0001089289657686467   0.0   -0.0002117400704629548
-0.0001089289657686467   0.0   -0.0002117400704629548
1.4334590963228408e-05   -1.9496397582992385e-06   -7.470593098142272e-06
1.4334590963228408e-05   -1.9496397582992385e-06   -7.470593098142272e-06
1.4334590963228408e-05   -1.9496397582992385e-06   -7.470593098142272e-06
1.4334590963228408e-05   -1.9496397582992385e-06   -7.470593098142272e-06
1.6928122086146156e-05   0.0   -0.00021667519330673306
1.6928122086146156e-05   0.0   -0.00021667519330673306
1.6928122086146156e-05   0.0   -0.00021667519330673306
1.6928122086146156e-05   0.0   -0.00021667519330673306
-0.00010482331481379757   3.857971359071046e-06   -1.6070914622269794e-05
-0.00010482331481379757   3.857971359071046e-06   -1.6070914622269794e-05
-0.00010482331481379757   3.857971359071046e-06   -1.6070914622269794e-05
-0.00010482331481379757   3.857971359071046e-06   -1.6070914622269794e-05
-4.600042184125009e-05   -4.112602369815829e-06   -0.0001093267253391831
-4.600042184125009e-05   -4.112602369815829e-06   -0.0001093267253391831
-4.600042184125009e-05   -4.112602369815829e-06   -0.0001093267253391831
-4.600042184125009e-05   -4.112602369815829e-06   -0.0001093267253391831
-0.00010482331481379775   0.0   -0.00021898997612217642
-0.00010482331481379775   0.0   -0.00021898997612217642
-0.00010482331481379775   0.0   -0.00021898997612217642
-0.00010482331481379775   0.0   -0.00021898997612217642
1.6928122086146183e-05   3.857971359071046e-06   -1.37561318068272e-05
1.6928122086146183e-05   3.857971359071046e-06   -1.37561318068272e-05
1.6928122086146183e-05   3.857971359071046e-06   -1.37561318068272e-05
1.6928122086146183e-05   3.857971359071046e-06   -1.37561318068272e-05
1.8967374439217096e-05   0.0   -0.00021636969603726114
1.8967374439217096e-05   0.0   -0.00021636969603726114
1.8967374439217096e-05   0.0   -0.00021636969603726114
1.8967374439217096e-05   0.0   -0.00021636969603726114
-0.00010254135147882371   8.9688075709888e-06   -1.9236437383119445e-05
-0.00010254135147882371   8.9688075709888e-06   -1.9236437383119445e-05
-0.00010254135147882371   8.9688075709888e-06   -1.9236437383119445e-05
-0.00010254135147882371   8.9688075709888e-06   -1.9236437383119445e-05
-4.292797018729024e-05   2.18356673742907e-06   -0.00011452092836887295
-4.292797018729024e-05   2.18356673742907e-06   -0.00011452092836887295
-4.292797018729024e-05   2.18356673742907e-06   -0.00011452092836887295
-4.292797018729024e-05   2.18356673742907e-06   -0.00011452092836887295
-0.00010254135147882408   0.0   -0.0002217509805798548
-0.00010254135147882408   0.0   -0.0002217509805798548
-0.00010254135147882408   0.0   -0.0002217509805798548
-0.00010254135147882408   0.0   -0.0002217509805798548
1.896737443921713e-05   8.968807570988854e-06   -1.3855152840526207e-05
1.896737443921713e-05   8.968807570988854e-06   -1.3855152840526207e-05
1.896737443921713e-05   8.968807570988854e-06   -1.3855152840526207e-05
1.896737443921713e-05   8.968807570988854e-06   -1.3855152840526207e-05
2.17306041133893e-05   0.0   -0.0002116583872379358
2.17306041133893e-05   0.0   -0.0002116583872379358
2.17306041133893e-05   0.0   -0.0002116583872379358
2.17306041133893e-05   0.0   -0.0002116583872379358
-0.00010047310225219156   1.4891934231563641e-05   -1.692070383423896e-05
-0.00010047310225219156   1.4891934231563641e-05   -1.692070383423896e-05
-0.00010047310225219156   1.4891934231563641e-05   -1.692070383423896e-05
-0.00010047310225219156   1.4891934231563641e-05   -1.692070383423896e-05
-4.04053736827173e-05   8.410494451598869e-06   -0.00011314472091538404
-4.04053736827173e-05   8.410494451598869e-06   -0.00011314472091538404
-4.04053736827173e-05   8.410494451598869e-06   -0.00011314472091538404
-4.04053736827173e-05   8.410494451598869e-06   -0.00011314472091538404
1.4334590963228432e-05   0.0   -0.00021290985431793435
1.4334590963228432e-05   0.0   -0.00021290985431793435
1.4334590963228432e-05   0.0   -0.00021290985431793435
1.4334590963228432e-05   0.0   -0.00021290985431793435
0.000148085581077893   -1.7368618081039285e-05   -4.1270830878351516e-07
0.000148085581077893   -1.7368618081039285e-05   -4.1270830878351516e-07
0.000148085581077893   -1.7368618081039285e-05   -4.1270830878351516e-07
0.000148085581077893   -1.7368618081039285e-05   -4.1270830878351516e-07
0.00014827320312369168   0.0   -0.00022454126384194688
0.00014827320312369168   0.0   -0.00022454126384194688
0.00014827320312369168   0.0   -0.00022454126384194688
0.00014827320312369168   0.0   -0.00022454126384194688
1.6928122086146214e-05   -1.3110117558688466e-05   2.233275089175252e-06
1.6928122086146214e-05   -1.3110117558688466e-05   2.233275089175252e-06
1.6928122086146214e-05   -1.3110117558688466e-05   2.233275089175252e-06
1.6928122086146214e-05   -1.3110117558688466e-05   2.233275089175252e-06
8.130389704346005e-05   -9.692841270010443e-06   -0.00010711004894622116
8.130389704346005e-05   -9.692841270010443e-06   -0.00010711004894622116
8.130389704346005e-05   -9.692841270010443e-06   -0.00010711004894622116
8.130389704346005e-05   -9.692841270010443e-06   -0.00010711004894622116
1.6928122086146214e-05   0.0   -0.0002166751933067338
1.6928122086146214e-05   0.0   -0.0002166751933067338
1.6928122086146214e-05   0.0   -0.0002166751933067338
1.6928122086146214e-05   0.0   -0.0002166751933067338
0.00014827320312369168   -1.3110117558688466e-05   -5.632795446037803e-06
0.00014827320312369168   -1.3110117558688466e-05   -5.632795446037803e-06
0.00014827320312369168   -1.3110117558688466e-05   -5.632795446037803e-06
0.00014827320312369168   -1.3110117558688466e-05   -5.632795446037803e-06
0.00014757293451086312   0.0   -0.00022133435705529284
0.00014757293451086312   0.0   -0.00022133435705529284
0.00014757293451086312   0.0   -0.00022133435705529284
0.00014757293451086312   0.0   -0.00022133435705529284
1.896737443921713e-05   -8.274435030052247e-06   -2.027095917851535e-06
1.896737443921713e-05   -8.274435030052247e-06   -2.027095917851535e-06
1.896737443921713e-05   -8.274435030052247e-06   -2.027095917851535e-06
1.896737443921713e-05   -8.274435030052247e-06   -2.027095917851535e-06
8.225052829850467e-05   -3.882636457132549e-06   -0.00011013409816041582
8.225052829850467e-05   -3.882636457132549e-06   -0.00011013409816041582
8.225052829850467e-05   -3.882636457132549e-06   -0.00011013409816041582
8.225052829850467e-05   -3.882636457132549e-06   -0.00011013409816041582
1.8967374439217113e-05   0.0   -0.00021636969603726133
1.8967374439217113e-05   0.0   -0.00021636969603726133
1.8967374439217113e-05   0.0   -0.00021636969603726133
1.8967374439217113e-05   0.0   -0.00021636969603726133
0.00014757293451086312   -8.274435030052247e-06   -6.991756935882871e-06
0.00014757293451086312   -8.274435030052247e-06   -6.991756935882871e-06
0.00014757293451086312   -8.274435030052247e-06   -6.991756935882871e-06
0.00014757293451086312   -8.274435030052247e-06   -6.991756935882871e-06
0.00015036829507793478   0.0   -0.00021272181646841385
0.00015036829507793478   0.0   -0.00021272181646841385
0.00015036829507793478   0.0   -0.00021272181646841385
0.00015036829507793478   0.0   -0.00021272181646841385
2.173060411338934e-05   -1.7723820507961467e-06   2.7377643696395074e-06
2.173060411338934e-05   -1.7723820507961467e-06   2.7377643696395074e-06
2.173060411338934e-05   -1.7723820507961467e-06   2.7377643696395074e-06
2.173060411338934e-05   -1.7723820507961467e-06   2.7377643696395074e-06
8.466783475857588e-05   3.0398996407063686e-06   -0.00010504498905390615
8.466783475857588e-05   3.0398996407063686e-06   -0.00010504498905390615
8.466783475857588e-05   3.0398996407063686e-06   -0.00010504498905390615
8.466783475857588e-05   3.0398996407063686e-06   -0.00010504498905390615
0.000148085581077893   0.0   -0.00022333102516655792
0.000148085581077893   0.0   -0.00022333102516655792
0.000148085581077893   0.0   -0.00022333102516655792
0.000148085581077893   0.0   -0.00022333102516655792
0.0003339240953829407   -4.397844102026427e-05   6.001276739636479e-05
0.0003339240953829407   -4.397844102026427e-05   6.001276739636479e-05
0.0003339240953829407   -4.397844102026427e-05   6.001276739636479e-05
0.0003339240953829407   -4.397844102026427e-05   6.001276739636479e-05
0.0003135102862086903   0.0   -0.0002470164462900186
0.0003135102862086903   0.0   -0.0002470164462900186
0.0003135102862086903   0.0   -0.0002470164462900186
0.0003135102862086903   0.0   -0.0002470164462900186
0.00014827320312369168   -3.745863741345278e-05   5.0853874633050836e-05
0.00014827320312369168   -3.745863741345278e-05   5.0853874633050836e-05
0.00014827320312369168   -3.745863741345278e-05   5.0853874633050836e-05
0.00014827320312369168   -3.745863741345278e-05   5.0853874633050836e-05
0.00023079793364329165   -1.973785093621722e-05   -9.731981478595706e-05
0.00023079793364329165   -1.973785093621722e-05   -9.731981478595706e-05
0.00023079793364329165   -1.973785093621722e-05   -9.731981478595706e-05
0.00023079793364329165   -1.973785093621722e-05   -9.731981478595706e-05
0.00014827320312369157   0.0   -0.0002245412638419467
0.00014827320312369157   0.0   -0.0002245412638419467
0.00014827320312369157   0.0   -0.0002245412638419467
0.00014827320312369157   0.0   -0.0002245412638419467
0.0003135102862086892   -3.7458637413452674e-05   2.837869218497895e-05
0.0003135102862086892   -3.7458637413452674e-05   2.837869218497895e-05
0.0003135102862086892   -3.7458637413452674e-05   2.837869218497895e-05
0.0003135102862086892   -3.7458637413452674e-05   2.837869218497895e-05
0.00030406719612558787   0.0   -0.0002418801240721718
0.00030406719612558787   0.0   -0.0002418801240721718
0.00030406719612558787   0.0   -0.0002418801240721718
0.00030406719612558787   0.0   -0.0002418801240721718
0.00014757293451086312   -3.424294502813157e-05   3.94894123025817e-05
0.00014757293451086312   -3.424294502813157e-05   3.94894123025817e-05
0.00014757293451086312   -3.424294502813157e-05   3.94894123025817e-05
0.00014757293451086312   -3.424294502813157e-05   3.94894123025817e-05
0.00022617019962463964   -1.4449050191854101e-05   -0.00010338236645547892
0.00022617019962463964   -1.4449050191854101e-05   -0.00010338236645547892
0.00022617019962463964   -1.4449050191854101e-05   -0.00010338236645547892
0.00022617019962463964   -1.4449050191854101e-05   -0.00010338236645547892
0.00014757293451086312   0.0   -0.00022133435705529284
0.00014757293451086312   0.0   -0.00022133435705529284
0.00014757293451086312   0.0   -0.00022133435705529284
0.00014757293451086312   0.0   -0.00022133435705529284
0.00030406719612558684   -3.424294502813141e-05   1.894364528570269e-05
0.00030406719612558684   -3.424294502813141e-05   1.894364528570269e-05
0.00030406719612558684   -3.424294502813141e-05   1.894364528570269e-05
0.00030406719612558684   -3.424294502813141e-05   1.894364528570269e-05
0.000290054687418406   0.0   -0.00022871867880069386
0.000290054687418406   0.0   -0.00022871867880069386
0.000290054687418406   0.0   -0.00022871867880069386
0.000290054687418406   0.0   -0.00022871867880069386
0.00015036829507793478   -2.666143722046733e-05   2.0088837432372282e-05
0.00015036829507793478   -2.666143722046733e-05   2.0088837432372282e-05
0.00015036829507793478   -2.666143722046733e-05   2.0088837432372282e-05
0.00015036829507793478   -2.666143722046733e-05   2.0088837432372282e-05
0.0002188138109646348   -6.1536014545011735e-06   -0.00010629172383837401
0.0002188138109646348   -6.1536014545011735e-06   -0.00010629172383837401
0.0002188138109646348   -6.1536014545011735e-06   -0.00010629172383837401
0.0002188138109646348   -6.1536014545011735e-06   -0.00010629172383837401
-0.00032681957853306033   4.17581968815243e-05   -0.0002139171627131427
-0.00032681957853306033   4.17581968815243e-05   -0.0002139171627131427