<?xml version="1.0"?> 
<VTKFile type="UnstructuredGrid"> 
   <UnstructuredGrid> 
      <Piece NumberOfPoints="6000"  NumberOfCells="1500">  
          <Points>  
             <DataArray type="Float64" NumberOfComponents="3" format="ascii">   
-500.0   0.0   0.0
-450.0   0.0   0.0
-500.0   30.0   0.0
-500.0   0.0   16.666666666666668
-450.0   0.0   0.0
-450.0   30.0   0.0
-500.0   30.0   0.0
-450.0   30.0   16.666666666666668
-500.0   0.0   16.666666666666668
-500.0   30.0   16.666666666666668
-450.0   30.0   16.666666666666668
-500.0   30.0   0.0
-500.0   0.0   16.666666666666668
-450.0   30.0   16.666666666666668
-450.0   0.0   16.666666666666668
-450.0   0.0   0.0
-500.0   0.0   16.666666666666668
-450.0   30.0   16.666666666666668
-450.0   0.0   0.0
-500.0   30.0   0.0
-500.0   0.0   16.666666666666668
-450.0   0.0   16.666666666666668
-500.0   30.0   16.666666666666668
-500.0   0.0   33.333333333333336
-450.0   0.0   16.666666666666668
-450.0   30.0   16.666666666666668
-500.0   30.0   16.666666666666668
-450.0   30.0   33.333333333333336
-500.0   0.0   33.333333333333336
-500.0   30.0   33.333333333333336
-450.0   30.0   33.333333333333336
-500.0   30.0   16.666666666666668
-500.0   0.0   33.333333333333336
-450.0   30.0   33.333333333333336
-450.0   0.0   33.333333333333336
-450.0   0.0   16.666666666666668
-500.0   0.0   33.333333333333336
-450.0   30.0   33.333333333333336
-450.0   0.0   16.666666666666668
-500.0   30.0   16.666666666666668
-500.0   0.0   33.333333333333336
-450.0   0.0   33.333333333333336
-500.0   30.0   33.333333333333336
-500.0   0.0   50.0
-450.0   0.0   33.333333333333336
-450.0   30.0   33.333333333333336
-500.0   30.0   33.333333333333336
-450.0   30.0   50.0
-500.0   0.0   50.0
-500.0   30.0   50.0
-450.0   30.0   50.0
-500.0   30.0   33.333333333333336
-500.0   0.0   50.0
-450.0   30.0   50.0
-450.0   0.0   50.0
-450.0   0.0   33.333333333333336
-500.0   0.0   50.0
-450.0   30.0   50.0
-450.0   0.0   33.333333333333336
-500.0   30.0   33.333333333333336
-500.0   30.0   0.0
-450.0   30.0   0.0
-500.0   60.0   0.0
-500.0   30.0   16.666666666666668
-450.0   30.0   0.0
-450.0   60.0   0.0
-500.0   60.0   0.0
-450.0   60.0   16.666666666666668
-500.0   30.0   16.666666666666668
-500.0   60.0   16.666666666666668
-450.0   60.0   16.666666666666668
-500.0   60.0   0.0
-500.0   30.0   16.666666666666668
-450.0   60.0   16.666666666666668
-450.0   30.0   16.666666666666668
-450.0   30.0   0.0
-500.0   30.0   16.666666666666668
-450.0   60.0   16.666666666666668
-450.0   30.0   0.0
-500.0   60.0   0.0
-500.0   30.0   16.666666666666668
-450.0   30.0   16.666666666666668
-500.0   60.0   16.666666666666668
-500.0   30.0   33.333333333333336
-450.0   30.0   16.666666666666668
-450.0   60.0   16.666666666666668
-500.0   60.0   16.666666666666668
-450.0   60.0   33.333333333333336
-500.0   30.0   33.333333333333336
-500.0   60.0   33.333333333333336
-450.0   60.0   33.333333333333336
-500.0   60.0   16.666666666666668
-500.0   30.0   33.333333333333336
-450.0   60.0   33.333333333333336
-450.0   30.0   33.333333333333336
-450.0   30.0   16.666666666666668
-500.0   30.0   33.333333333333336
-450.0   60.0   33.333333333333336
-450.0   30.0   16.666666666666668
-500.0   60.0   16.666666666666668
-500.0   30.0   33.333333333333336
-450.0   30.0   33.333333333333336
-500.0   60.0   33.333333333333336
-500.0   30.0   50.0
-450.0   30.0   33.333333333333336
-450.0   60.0   33.333333333333336
-500.0   60.0   33.333333333333336
-450.0   60.0   50.0
-500.0   30.0   50.0
-500.0   60.0   50.0
-450.0   60.0   50.0
-500.0   60.0   33.333333333333336
-500.0   30.0   50.0
-450.0   60.0   50.0
-450.0   30.0   50.0
-450.0   30.0   33.333333333333336
-500.0   30.0   50.0
-450.0   60.0   50.0
-450.0   30.0   33.333333333333336
-500.0   60.0   33.333333333333336
-500.0   60.0   0.0
-450.0   60.0   0.0
-500.0   90.0   0.0
-500.0   60.0   16.666666666666668
-450.0   60.0   0.0
-450.0   90.0   0.0
-500.0   90.0   0.0
-450.0   90.0   16.666666666666668
-500.0   60.0   16.666666666666668
-500.0   90.0   16.666666666666668
-450.0   90.0   16.666666666666668
-500.0   90.0   0.0
-500.0   60.0   16.666666666666668
-450.0   90.0   16.666666666666668
-450.0   60.0   16.666666666666668
-450.0   60.0   0.0
-500.0   60.0   16.666666666666668
-450.0   90.0   16.666666666666668
-450.0   60.0   0.0
-500.0   90.0   0.0
-500.0   60.0   16.666666666666668
-450.0   60.0   16.666666666666668
-500.0   90.0   16.666666666666668
-500.0   60.0   33.333333333333336
-450.0   60.0   16.666666666666668
-450.0   90.0   16.666666666666668
-500.0   90.0   16.666666666666668
-450.0   90.0   33.333333333333336
-500.0   60.0   33.333333333333336
-500.0   90.0   33.333333333333336
-450.0   90.0   33.333333333333336
-500.0   90.0   16.666666666666668
-500.0   60.0   33.333333333333336
-450.0   90.0   33.333333333333336
-450.0   60.0   33.333333333333336
-450.0   60.0   16.666666666666668
-500.0   60.0   33.333333333333336
-450.0   90.0   33.333333333333336
-450.0   60.0   16.666666666666668
-500.0   90.0   16.666666666666668
-500.0   60.0   33.333333333333336
-450.0   60.0   33.333333333333336
-500.0   90.0   33.333333333333336
-500.0   60.0   50.0
-450.0   60.0   33.333333333333336
-450.0   90.0   33.333333333333336
-500.0   90.0   33.333333333333336
-450.0   90.0   50.0
-500.0   60.0   50.0
-500.0   90.0   50.0
-450.0   90.0   50.0
-500.0   90.0   33.333333333333336
-500.0   60.0   50.0
-450.0   90.0   50.0
-450.0   60.0   50.0
-450.0   60.0   33.333333333333336
-500.0   60.0   50.0
-450.0   90.0   50.0
-450.0   60.0   33.333333333333336
-500.0   90.0   33.333333333333336
-500.0   90.0   0.0
-450.0   90.0   0.0
-500.0   120.0   0.0
-500.0   90.0   16.666666666666668
-450.0   90.0   0.0
-450.0   120.0   0.0
-500.0   120.0   0.0
-450.0   120.0   16.666666666666668
-500.0   90.0   16.666666666666668
-500.0   120.0   16.666666666666668
-450.0   120.0   16.666666666666668
-500.0   120.0   0.0
-500.0   90.0   16.666666666666668
-450.0   120.0   16.666666666666668
-450.0   90.0   16.666666666666668
-450.0   90.0   0.0
-500.0   90.0   16.666666666666668
-450.0   120.0   16.666666666666668
-450.0   90.0   0.0
-500.0   120.0   0.0
-500.0   90.0   16.666666666666668
-450.0   90.0   16.666666666666668
-500.0   120.0   16.666666666666668
-500.0   90.0   33.333333333333336
-450.0   90.0   16.666666666666668
-450.0   120.0   16.666666666666668
-500.0   120.0   16.666666666666668
-450.0   120.0   33.333333333333336
-500.0   90.0   33.333333333333336
-500.0   120.0   33.333333333333336
-450.0   120.0   33.333333333333336
-500.0   120.0   16.666666666666668
-500.0   90.0   33.333333333333336
-450.0   120.0   33.333333333333336
-450.0   90.0   33.333333333333336
-450.0   90.0   16.666666666666668
-500.0   90.0   33.333333333333336
-450.0   120.0   33.333333333333336
-450.0   90.0   16.666666666666668
-500.0   120.0   16.666666666666668
-500.0   90.0   33.333333333333336
-450.0   90.0   33.333333333333336
-500.0   120.0   33.333333333333336
-500.0   90.0   50.0
-450.0   90.0   33.333333333333336
-450.0   120.0   33.333333333333336
-500.0   120.0   33.333333333333336
-450.0   120.0   50.0
-500.0   90.0   50.0
-500.0   120.0   50.0
-450.0   120.0   50.0
-500.0   120.0   33.333333333333336
-500.0   90.0   50.0
-450.0   120.0   50.0
-450.0   90.0   50.0
-450.0   90.0   33.333333333333336
-500.0   90.0   50.0
-450.0   120.0   50.0
-450.0   90.0   33.333333333333336
-500.0   120.0   33.333333333333336
-500.0   120.0   0.0
-450.0   120.0   0.0
-500.0   150.0   0.0
-500.0   120.0   16.666666666666668
-450.0   120.0   0.0
-450.0   150.0   0.0
-500.0   150.0   0.0
-450.0   150.0   16.666666666666668
-500.0   120.0   16.666666666666668
-500.0   150.0   16.666666666666668
-450.0   150.0   16.666666666666668
-500.0   150.0   0.0
-500.0   120.0   16.666666666666668
-450.0   150.0   16.666666666666668
-450.0   120.0   16.666666666666668
-450.0   120.0   0.0
-500.0   120.0   16.666666666666668
-450.0   150.0   16.666666666666668
-450.0   120.0   0.0
-500.0   150.0   0.0
-500.0   120.0   16.666666666666668
-450.0   120.0   16.666666666666668
-500.0   150.0   16.666666666666668
-500.0   120.0   33.333333333333336
-450.0   120.0   16.666666666666668
-450.0   150.0   16.666666666666668
-500.0   150.0   16.666666666666668
-450.0   150.0   33.333333333333336
-500.0   120.0   33.333333333333336
-500.0   150.0   33.333333333333336
-450.0   150.0   33.333333333333336
-500.0   150.0   16.666666666666668
-500.0   120.0   33.333333333333336
-450.0   150.0   33.333333333333336
-450.0   120.0   33.333333333333336
-450.0   120.0   16.666666666666668
-500.0   120.0   33.333333333333336
-450.0   150.0   33.333333333333336
-450.0   120.0   16.666666666666668
-500.0   150.0   16.666666666666668
-500.0   120.0   33.333333333333336
-450.0   120.0   33.333333333333336
-500.0   150.0   33.333333333333336
-500.0   120.0   50.0
-450.0   120.0   33.333333333333336
-450.0   150.0   33.333333333333336
-500.0   150.0   33.333333333333336
-450.0   150.0   50.0
-500.0   120.0   50.0
-500.0   150.0   50.0
-450.0   150.0   50.0
-500.0   150.0   33.333333333333336
-500.0   120.0   50.0
-450.0   150.0   50.0
-450.0   120.0   50.0
-450.0   120.0   33.333333333333336
-500.0   120.0   50.0
-450.0   150.0   50.0
-450.0   120.0   33.333333333333336
-500.0   150.0   33.333333333333336
-450.0   0.0   0.0
-400.0   0.0   0.0
-450.0   30.0   0.0
-450.0   0.0   16.666666666666668
-400.0   0.0   0.0
-400.0   30.0   0.0
-450.0   30.0   0.0
-400.0   30.0   16.666666666666668
-450.0   0.0   16.666666666666668
-450.0   30.0   16.666666666666668
-400.0   30.0   16.666666666666668
-450.0   30.0   0.0
-450.0   0.0   16.666666666666668
-400.0   30.0   16.666666666666668
-400.0   0.0   16.666666666666668
-400.0   0.0   0.0
-450.0   0.0   16.666666666666668
-400.0   30.0   16.666666666666668
-400.0   0.0   0.0
-450.0   30.0   0.0
-450.0   0.0   16.666666666666668
-400.0   0.0   16.666666666666668
-450.0   30.0   16.666666666666668
[...]
          <PointData>  
             <DataArray type="Float64" NumberOfComponents="3" Name="Strains" format="ascii">   
-0.00018825222638763284   0.0   -0.0001232905794206687
-0.00018825222638763284   0.0   -0.0001232905794206687
-0.00018825222638763284   0.0   -0.0001232905794206687
-0.00018825222638763284   0.0   -0.0001232905794206687
-0.00011981422741191226   2.088919489009333e-05   3.3062691395880424e-06
-0.00011981422741191226   2.088919489009333e-05   3.3062691395880424e-06
-0.00011981422741191226   2.088919489009333e-05   3.3062691395880424e-06
-0.00011981422741191226   2.088919489009333e-05   3.3062691395880424e-06
-0.00011746280529613358   0.0   -0.00011632778217979772
-0.00011746280529613358   0.0   -0.00011632778217979772
-0.00011746280529613358   0.0   -0.00011632778217979772
-0.00011746280529613358   0.0   -0.00011632778217979772
-0.00019703726600586968   2.5051657264955326e-05   1.2653246441231302e-06
-0.00019703726600586968   2.5051657264955326e-05   1.2653246441231302e-06
-0.00019703726600586968   2.5051657264955326e-05   1.2653246441231302e-06
-0.00019703726600586968   2.5051657264955326e-05   1.2653246441231302e-06
-0.00015285751584188294   5.802331034059129e-06   -6.0817996557317e-05
-0.00015285751584188294   5.802331034059129e-06   -6.0817996557317e-05
-0.00015285751584188294   5.802331034059129e-06   -6.0817996557317e-05
-0.00015285751584188294   5.802331034059129e-06   -6.0817996557317e-05
-0.00019703726600587   0.0   -0.00013135877653877096
-0.00019703726600587   0.0   -0.00013135877653877096
-0.00019703726600587   0.0   -0.00013135877653877096
-0.00019703726600587   0.0   -0.00013135877653877096
-0.00011746280529613358   2.505165726495538e-05   1.6296319003096353e-05
-0.00011746280529613358   2.505165726495538e-05   1.6296319003096353e-05
-0.00011746280529613358   2.505165726495538e-05   1.6296319003096353e-05
-0.00011746280529613358   2.505165726495538e-05   1.6296319003096353e-05
-0.00011781366006388951   0.0   -0.00011918035012310456
-0.00011781366006388951   0.0   -0.00011918035012310456
-0.00011781366006388951   0.0   -0.00011918035012310456
-0.00011781366006388951   0.0   -0.00011918035012310456
-0.00020321590611305264   2.6834595911103714e-05   7.055969078838937e-06
-0.00020321590611305264   2.6834595911103714e-05   7.055969078838937e-06
-0.00020321590611305264   2.6834595911103714e-05   7.055969078838937e-06
-0.00020321590611305264   2.6834595911103714e-05   7.055969078838937e-06
-0.0001574254630348795   1.0148688679721972e-05   -5.9249891712620506e-05
-0.0001574254630348795   1.0148688679721972e-05   -5.9249891712620506e-05
-0.0001574254630348795   1.0148688679721972e-05   -5.9249891712620506e-05
-0.0001574254630348795   1.0148688679721972e-05   -5.9249891712620506e-05
-0.000203215906113053   0.0   -0.00013528110766976683
-0.000203215906113053   0.0   -0.00013528110766976683
-0.000203215906113053   0.0   -0.00013528110766976683
-0.000203215906113053   0.0   -0.00013528110766976683
-0.00011781366006388951   2.6834595911103768e-05   2.3156726625501257e-05
-0.00011781366006388951   2.6834595911103768e-05   2.3156726625501257e-05
-0.00011781366006388951   2.6834595911103768e-05   2.3156726625501257e-05
-0.00011781366006388951   2.6834595911103768e-05   2.3156726625501257e-05
-0.00011777381673097866   0.0   -0.00011991025735687117
-0.00011777381673097866   0.0   -0.00011991025735687117
-0.00011777381673097866   0.0   -0.00011991025735687117
-0.00011777381673097866   0.0   -0.00011991025735687117
-0.00021650695925950952   3.055611761466632e-05   2.6311309621880976e-05
-0.00021650695925950952   3.055611761466632e-05   2.6311309621880976e-05
-0.00021650695925950952   3.055611761466632e-05   2.6311309621880976e-05
-0.00021650695925950952   3.055611761466632e-05   2.6311309621880976e-05
-0.00016049486142201555   1.2809041927413031e-05   -5.6393941361590255e-05
-0.00016049486142201555   1.2809041927413031e-05   -5.6393941361590255e-05
-0.00016049486142201555   1.2809041927413031e-05   -5.6393941361590255e-05
-0.00016049486142201555   1.2809041927413031e-05   -5.6393941361590255e-05
-0.00011981422741191246   0.0   -0.00011075706248661267
-0.00011981422741191246   0.0   -0.00011075706248661267
-0.00011981422741191246   0.0   -0.00011075706248661267
-0.00011981422741191246   0.0   -0.00011075706248661267
-5.454139396751776e-05   7.6679837686741e-06   2.63178351524957e-06
-5.454139396751776e-05   7.6679837686741e-06   2.63178351524957e-06
-5.454139396751776e-05   7.6679837686741e-06   2.63178351524957e-06
-5.454139396751776e-05   7.6679837686741e-06   2.63178351524957e-06
-5.2476233172167566e-05   0.0   -0.00010978449288478746
-5.2476233172167566e-05   0.0   -0.00010978449288478746
-5.2476233172167566e-05   0.0   -0.00010978449288478746
-5.2476233172167566e-05   0.0   -0.00010978449288478746
-0.00011746280529613358   1.0905482158350428e-05   -8.016828639854391e-06
-0.00011746280529613358   1.0905482158350428e-05   -8.016828639854391e-06
-0.00011746280529613358   1.0905482158350428e-05   -8.016828639854391e-06
-0.00011746280529613358   1.0905482158350428e-05   -8.016828639854391e-06
-8.614523029203987e-05   8.104746681876772e-07   -5.41557824859125e-05
-8.614523029203987e-05   8.104746681876772e-07   -5.41557824859125e-05
-8.614523029203987e-05   8.104746681876772e-07   -5.41557824859125e-05
-8.614523029203987e-05   8.104746681876772e-07   -5.41557824859125e-05
-0.00011746280529613347   0.0   -0.00011632778217979762
-0.00011746280529613347   0.0   -0.00011632778217979762
-0.00011746280529613347   0.0   -0.00011632778217979762
-0.00011746280529613347   0.0   -0.00011632778217979762
-5.2476233172167566e-05   1.0905482158350428e-05   -1.4735393448441267e-06
-5.2476233172167566e-05   1.0905482158350428e-05   -1.4735393448441267e-06
-5.2476233172167566e-05   1.0905482158350428e-05   -1.4735393448441267e-06
-5.2476233172167566e-05   1.0905482158350428e-05   -1.4735393448441267e-06
-5.132438272180474e-05   0.0   -0.00011116663546198854
-5.132438272180474e-05   0.0   -0.00011116663546198854
-5.132438272180474e-05   0.0   -0.00011116663546198854
-5.132438272180474e-05   0.0   -0.00011116663546198854
-0.00011781366006388951   1.3356191101860043e-05   -8.364887886296648e-06
-0.00011781366006388951   1.3356191101860043e-05   -8.364887886296648e-06
-0.00011781366006388951   1.3356191101860043e-05   -8.364887886296648e-06
-0.00011781366006388951   1.3356191101860043e-05   -8.364887886296648e-06
-8.4393594008969e-05   4.300955598174317e-06   -5.8631856675618906e-05
-8.4393594008969e-05   4.300955598174317e-06   -5.8631856675618906e-05
-8.4393594008969e-05   4.300955598174317e-06   -5.8631856675618906e-05
-8.4393594008969e-05   4.300955598174317e-06   -5.8631856675618906e-05
-0.00011781366006388951   0.0   -0.00011918035012310456
-0.00011781366006388951   0.0   -0.00011918035012310456
-0.00011781366006388951   0.0   -0.00011918035012310456
-0.00011781366006388951   0.0   -0.00011918035012310456
-5.132438272180474e-05   1.3356191101860043e-05   -3.5117322518062966e-07
-5.132438272180474e-05   1.3356191101860043e-05   -3.5117322518062966e-07
-5.132438272180474e-05   1.3356191101860043e-05   -3.5117322518062966e-07
-5.132438272180474e-05   1.3356191101860043e-05   -3.5117322518062966e-07
-5.0278768635736184e-05   0.0   -0.00011058815293852363
-5.0278768635736184e-05   0.0   -0.00011058815293852363
-5.0278768635736184e-05   0.0   -0.00011058815293852363
-5.0278768635736184e-05   0.0   -0.00011058815293852363
-0.00011777381673097837   1.5536840697245727e-05   -7.418510531467012e-06
-0.00011777381673097837   1.5536840697245727e-05   -7.418510531467012e-06
-0.00011777381673097837   1.5536840697245727e-05   -7.418510531467012e-06
-0.00011777381673097837   1.5536840697245727e-05   -7.418510531467012e-06
-8.404621434981282e-05   7.160164320484038e-06   -5.860517534068633e-05
-8.404621434981282e-05   7.160164320484038e-06   -5.860517534068633e-05
-8.404621434981282e-05   7.160164320484038e-06   -5.860517534068633e-05
-8.404621434981282e-05   7.160164320484038e-06   -5.860517534068633e-05
-5.4541393967517855e-05   0.0   -0.00010615627222540821
-5.4541393967517855e-05   0.0   -0.00010615627222540821
-5.4541393967517855e-05   0.0   -0.00010615627222540821
-5.4541393967517855e-05   0.0   -0.00010615627222540821
7.145913065764516e-06   -9.773774144553613e-07   -3.9305202852773615e-06
7.145913065764516e-06   -9.773774144553613e-07   -3.9305202852773615e-06
7.145913065764516e-06   -9.773774144553613e-07   -3.9305202852773615e-06
7.145913065764516e-06   -9.773774144553613e-07   -3.9305202852773615e-06
8.455021258481029e-06   0.0   -0.00010862577887698865
8.455021258481029e-06   0.0   -0.00010862577887698865
8.455021258481029e-06   0.0   -0.00010862577887698865
8.455021258481029e-06   0.0   -0.00010862577887698865
-5.247623317216748e-05   1.9311900129973805e-06   -8.232402167039754e-06
-5.247623317216748e-05   1.9311900129973805e-06   -8.232402167039754e-06
-5.247623317216748e-05   1.9311900129973805e-06   -8.232402167039754e-06
-5.247623317216748e-05   1.9311900129973805e-06   -8.232402167039754e-06
-2.304318635451832e-05   -2.0579222096506693e-06   -5.489401286286597e-05
-2.304318635451832e-05   -2.0579222096506693e-06   -5.489401286286597e-05
-2.304318635451832e-05   -2.0579222096506693e-06   -5.489401286286597e-05
-2.304318635451832e-05   -2.0579222096506693e-06   -5.489401286286597e-05
-5.2476233172167566e-05   0.0   -0.00010978449288478746
-5.2476233172167566e-05   0.0   -0.00010978449288478746
-5.2476233172167566e-05   0.0   -0.00010978449288478746
-5.2476233172167566e-05   0.0   -0.00010978449288478746
8.455021258481042e-06   1.9311900129973805e-06   -7.0736881592413185e-06
8.455021258481042e-06   1.9311900129973805e-06   -7.0736881592413185e-06
8.455021258481042e-06   1.9311900129973805e-06   -7.0736881592413185e-06
8.455021258481042e-06   1.9311900129973805e-06   -7.0736881592413185e-06
9.485663279450616e-06   0.0   -0.00010847187761043891
9.485663279450616e-06   0.0   -0.00010847187761043891
9.485663279450616e-06   0.0   -0.00010847187761043891
9.485663279450616e-06   0.0   -0.00010847187761043891
-5.1324382721804564e-05   4.491263085915732e-06   -9.816558793229586e-06
-5.1324382721804564e-05   4.491263085915732e-06   -9.816558793229586e-06
-5.1324382721804564e-05   4.491263085915732e-06   -9.816558793229586e-06
-5.1324382721804564e-05   4.491263085915732e-06   -9.816558793229586e-06
-2.149528494635843e-05   1.093846061956969e-06   -5.749327153793131e-05
-2.149528494635843e-05   1.093846061956969e-06   -5.749327153793131e-05
-2.149528494635843e-05   1.093846061956969e-06   -5.749327153793131e-05
-2.149528494635843e-05   1.093846061956969e-06   -5.749327153793131e-05
-5.132438272180474e-05   0.0   -0.00011116663546198854
-5.132438272180474e-05   0.0   -0.00011116663546198854
-5.132438272180474e-05   0.0   -0.00011116663546198854
-5.132438272180474e-05   0.0   -0.00011116663546198854
9.485663279450633e-06   4.491263085915732e-06   -7.121800941680148e-06
9.485663279450633e-06   4.491263085915732e-06   -7.121800941680148e-06
9.485663279450633e-06   4.491263085915732e-06   -7.121800941680148e-06
9.485663279450633e-06   4.491263085915732e-06   -7.121800941680148e-06
1.0878899688204118e-05   0.0   -0.00010611356602799859
1.0878899688204118e-05   0.0   -0.00010611356602799859
1.0878899688204118e-05   0.0   -0.00010611356602799859
1.0878899688204118e-05   0.0   -0.00010611356602799859
-5.0278768635736055e-05   7.457644850874867e-06   -8.658705731956433e-06
-5.0278768635736055e-05   7.457644850874867e-06   -8.658705731956433e-06
-5.0278768635736055e-05   7.457644850874867e-06   -8.658705731956433e-06
-5.0278768635736055e-05   7.457644850874867e-06   -8.658705731956433e-06
-2.0222741516800267e-05   4.210891194991463e-06   -5.680403206998612e-05
-2.0222741516800267e-05   4.210891194991463e-06   -5.680403206998612e-05
-2.0222741516800267e-05   4.210891194991463e-06   -5.680403206998612e-05
-2.0222741516800267e-05   4.210891194991463e-06   -5.680403206998612e-05
7.1459130657645285e-06   0.0   -0.00010674269867408141
7.1459130657645285e-06   0.0   -0.00010674269867408141
7.1459130657645285e-06   0.0   -0.00010674269867408141
7.1459130657645285e-06   0.0   -0.00010674269867408141
7.408988574679864e-05   -8.689883624321727e-06   -3.8334104695083877e-07
7.408988574679864e-05   -8.689883624321727e-06   -3.8334104695083877e-07
7.408988574679864e-05   -8.689883624321727e-06   -3.8334104695083877e-07
7.408988574679864e-05   -8.689883624321727e-06   -3.8334104695083877e-07
7.419589039170975e-05   0.0   -0.00011255970517822567
7.419589039170975e-05   0.0   -0.00011255970517822567
7.419589039170975e-05   0.0   -0.00011255970517822567
7.419589039170975e-05   0.0   -0.00011255970517822567
8.455021258481057e-06   -6.556543835394425e-06   9.423363450587691e-07
8.455021258481057e-06   -6.556543835394425e-06   9.423363450587691e-07
8.455021258481057e-06   -6.556543835394425e-06   9.423363450587691e-07
8.455021258481057e-06   -6.556543835394425e-06   9.423363450587691e-07
4.067090172873714e-05   -4.847505420120228e-06   -5.3776220821199164e-05
4.067090172873714e-05   -4.847505420120228e-06   -5.3776220821199164e-05
4.067090172873714e-05   -4.847505420120228e-06   -5.3776220821199164e-05
4.067090172873714e-05   -4.847505420120228e-06   -5.3776220821199164e-05
8.455021258481057e-06   0.0   -0.00010862577887698903
8.455021258481057e-06   0.0   -0.00010862577887698903
8.455021258481057e-06   0.0   -0.00010862577887698903
8.455021258481057e-06   0.0   -0.00010862577887698903
7.419589039170975e-05   -6.556543835394425e-06   -2.9915899561778895e-06
7.419589039170975e-05   -6.556543835394425e-06   -2.9915899561778895e-06
7.419589039170975e-05   -6.556543835394425e-06   -2.9915899561778895e-06
7.419589039170975e-05   -6.556543835394425e-06   -2.9915899561778895e-06
7.385593822332903e-05   0.0   -0.00011095221068476872
7.385593822332903e-05   0.0   -0.00011095221068476872
7.385593822332903e-05   0.0   -0.00011095221068476872
7.385593822332903e-05   0.0   -0.00011095221068476872
9.485663279450633e-06   -4.1338884572160505e-06   -1.1880860373084316e-06
9.485663279450633e-06   -4.1338884572160505e-06   -1.1880860373084316e-06
9.485663279450633e-06   -4.1338884572160505e-06   -1.1880860373084316e-06
9.485663279450633e-06   -4.1338884572160505e-06   -1.1880860373084316e-06
4.1155479740905044e-05   -1.9386931731497464e-06   -5.528823064350553e-05
4.1155479740905044e-05   -1.9386931731497464e-06   -5.528823064350553e-05
4.1155479740905044e-05   -1.9386931731497464e-06   -5.528823064350553e-05
4.1155479740905044e-05   -1.9386931731497464e-06   -5.528823064350553e-05
9.485663279450625e-06   0.0   -0.000108471877610439
9.485663279450625e-06   0.0   -0.000108471877610439
9.485663279450625e-06   0.0   -0.000108471877610439
9.485663279450625e-06   0.0   -0.000108471877610439
7.385593822332903e-05   -4.1338884572160505e-06   -3.668419111638074e-06
7.385593822332903e-05   -4.1338884572160505e-06   -3.668419111638074e-06
7.385593822332903e-05   -4.1338884572160505e-06   -3.668419111638074e-06
7.385593822332903e-05   -4.1338884572160505e-06   -3.668419111638074e-06
7.526499162172065e-05   0.0   -0.00010663978332640357
7.526499162172065e-05   0.0   -0.00010663978332640357
7.526499162172065e-05   0.0   -0.00010663978332640357
7.526499162172065e-05   0.0   -0.00010663978332640357
1.0878899688204138e-05   -8.77028830674649e-07   1.1965871945287523e-06
1.0878899688204138e-05   -8.77028830674649e-07   1.1965871945287523e-06
1.0878899688204138e-05   -8.77028830674649e-07   1.1965871945287523e-06
1.0878899688204138e-05   -8.77028830674649e-07   1.1965871945287523e-06
4.2375327450585615e-05   1.5267452366962724e-06   -5.2739723516529564e-05
4.2375327450585615e-05   1.5267452366962724e-06   -5.2739723516529564e-05
4.2375327450585615e-05   1.5267452366962724e-06   -5.2739723516529564e-05
4.2375327450585615e-05   1.5267452366962724e-06   -5.2739723516529564e-05
7.408988574679864e-05   0.0   -0.00011195662884867444
7.408988574679864e-05   0.0   -0.00011195662884867444
7.408988574679864e-05   0.0   -0.00011195662884867444
7.408988574679864e-05   0.0   -0.00011195662884867444
0.000167132401478979   -2.201149883433837e-05   2.9907331404357377e-05
0.000167132401478979   -2.201149883433837e-05   2.9907331404357377e-05
0.000167132401478979   -2.201149883433837e-05   2.9907331404357377e-05
0.000167132401478979   -2.201149883433837e-05   2.9907331404357377e-05
0.00015693086265523262   0.0   -0.00012380483191392692
0.00015693086265523262   0.0   -0.00012380483191392692
0.00015693086265523262   0.0   -0.00012380483191392692
0.00015693086265523262   0.0   -0.00012380483191392692
7.419589039170975e-05   -1.874187789283543e-05   2.5331915260979113e-05
7.419589039170975e-05   -1.874187789283543e-05   2.5331915260979113e-05
7.419589039170975e-05   -1.874187789283543e-05   2.5331915260979113e-05
7.419589039170975e-05   -1.874187789283543e-05   2.5331915260979113e-05
0.00011551037420101563   -9.873502554377079e-06   -4.884658295760565e-05
0.00011551037420101563   -9.873502554377079e-06   -4.884658295760565e-05
0.00011551037420101563   -9.873502554377079e-06   -4.884658295760565e-05
0.00011551037420101563   -9.873502554377079e-06   -4.884658295760565e-05
7.419589039170968e-05   0.0   -0.00011255970517822558
7.419589039170968e-05   0.0   -0.00011255970517822558
7.419589039170968e-05   0.0   -0.00011255970517822558
7.419589039170968e-05   0.0   -0.00011255970517822558
0.00015693086265523208   -1.8741877892835374e-05   1.4086788525277802e-05
0.00015693086265523208   -1.8741877892835374e-05   1.4086788525277802e-05
0.00015693086265523208   -1.8741877892835374e-05   1.4086788525277802e-05
0.00015693086265523208   -1.8741877892835374e-05   1.4086788525277802e-05
0.00015221650584612225   0.0   -0.000121230618546553
0.00015221650584612225   0.0   -0.000121230618546553
0.00015221650584612225   0.0   -0.000121230618546553
0.00015221650584612225   0.0   -0.000121230618546553
7.385593822332903e-05   -1.7130679769640446e-05   1.9648735353219952e-05
7.385593822332903e-05   -1.7130679769640446e-05   1.9648735353219952e-05
7.385593822332903e-05   -1.7130679769640446e-05   1.9648735353219952e-05
7.385593822332903e-05   -1.7130679769640446e-05   1.9648735353219952e-05
0.00011320619811891594   -7.2257611402727704e-06   -5.187798231704549e-05
0.00011320619811891594   -7.2257611402727704e-06   -5.187798231704549e-05
0.00011320619811891594   -7.2257611402727704e-06   -5.187798231704549e-05
0.00011320619811891594   -7.2257611402727704e-06   -5.187798231704549e-05
7.385593822332903e-05   0.0   -0.00011095221068476872
7.385593822332903e-05   0.0   -0.00011095221068476872
7.385593822332903e-05   0.0   -0.00011095221068476872
7.385593822332903e-05   0.0   -0.00011095221068476872
0.00015221650584612174   -1.713067976964042e-05   9.370327491435636e-06
0.00015221650584612174   -1.713067976964042e-05   9.370327491435636e-06
0.00015221650584612174   -1.713067976964042e-05   9.370327491435636e-06
0.00015221650584612174   -1.713067976964042e-05   9.370327491435636e-06
0.00014521365852966962   0.0   -0.00011463799735430085
0.00014521365852966962   0.0   -0.00011463799735430085
0.00014521365852966962   0.0   -0.00011463799735430085
0.00014521365852966962   0.0   -0.00011463799735430085
7.526499162172065e-05   -1.3330356713162463e-05   9.941328186845123e-06
7.526499162172065e-05   -1.3330356713162463e-05   9.941328186845123e-06
7.526499162172065e-05   -1.3330356713162463e-05   9.941328186845123e-06
7.526499162172065e-05   -1.3330356713162463e-05   9.941328186845123e-06
0.00010953479837649946   -3.0714888912769474e-06   -5.333033709758413e-05
0.00010953479837649946   -3.0714888912769474e-06   -5.333033709758413e-05
0.00010953479837649946   -3.0714888912769474e-06   -5.333033709758413e-05
0.00010953479837649946   -3.0714888912769474e-06   -5.333033709758413e-05
-0.00016352781097122616   2.0889194890093304e-05   -0.00010712266365014831
-0.00016352781097122616   2.0889194890093304e-05   -0.00010712266365014831