<?xml version="1.0"?> 
<VTKFile type="UnstructuredGrid"> 
   <UnstructuredGrid> 
      <Piece NumberOfPoints="6000"  NumberOfCells="1500">  
          <Points>  
             <DataArray type="Float64" NumberOfComponents="3" format="ascii">   
-500.0   0.0   0.0
-450.0   0.0   0.0
-500.0   30.0   0.0
-500.0   0.0   16.666666666666668
-450.0   0.0   0.0
-450.0   30.0   0.0
-500.0   30.0   0.0
-450.0   30.0   16.666666666666668
-500.0   0.0   16.666666666666668
-500.0   30.0   16.666666666666668
-450.0   30.0   16.666666666666668
-500.0   30.0   0.0
-500.0   0.0   16.666666666666668
-450.0   30.0   16.666666666666668
-450.0   0.0   16.666666666666668
-450.0   0.0   0.0
-500.0   0.0   16.666666666666668
-450.0   30.0   16.666666666666668
-450.0   0.0   0.0
-500.0   30.0   0.0
-500.0   0.0   16.666666666666668
-450.0   0.0   16.666666666666668
-500.0   30.0   16.666666666666668
-500.0   0.0   33.333333333333336
-450.0   0.0   16.666666666666668
-450.0   30.0   16.666666666666668
-500.0   30.0   16.666666666666668
-450.0   30.0   33.333333333333336
-500.0   0.0   33.333333333333336
-500.0   30.0   33.333333333333336
-450.0   30.0   33.333333333333336
-500.0   30.0   16.666666666666668
-500.0   0.0   33.333333333333336
-450.0   30.0   33.333333333333336
-450.0   0.0   33.333333333333336
-450.0   0.0   16.666666666666668
-500.0   0.0   33.333333333333336
-450.0   30.0   33.333333333333336
-450.0   0.0   16.666666666666668
-500.0   30.0   16.666666666666668
-500.0   0.0   33.333333333333336
-450.0   0.0   33.333333333333336
-500.0   30.0   33.333333333333336
-500.0   0.0   50.0
-450.0   0.0   33.333333333333336
-450.0   30.0   33.333333333333336
-500.0   30.0   33.333333333333336
-450.0   30.0   50.0
-500.0   0.0   50.0
-500.0   30.0   50.0
-450.0   30.0   50.0
-500.0   30.0   33.333333333333336
-500.0   0.0   50.0
-450.0   30.0   50.0
-450.0   0.0   50.0
-450.0   0.0   33.333333333333336
-500.0   0.0   50.0
-450.0   30.0   50.0
-450.0   0.0   33.333333333333336
-500.0   30.0   33.333333333333336
-500.0   30.0   0.0
-450.0   30.0   0.0
-500.0   60.0   0.0
-500.0   30.0   16.666666666666668
-450.0   30.0   0.0
-450.0   60.0   0.0
-500.0   60.0   0.0
-450.0   60.0   16.666666666666668
-500.0   30.0   16.666666666666668
-500.0   60.0   16.666666666666668
-450.0   60.0   16.666666666666668
-500.0   60.0   0.0
-500.0   30.0   16.666666666666668
-450.0   60.0   16.666666666666668
-450.0   30.0   16.666666666666668
-450.0   30.0   0.0
-500.0   30.0   16.666666666666668
-450.0   60.0   16.666666666666668
-450.0   30.0   0.0
-500.0   60.0   0.0
-500.0   30.0   16.666666666666668
-450.0   30.0   16.666666666666668
-500.0   60.0   16.666666666666668
-500.0   30.0   33.333333333333336
-450.0   30.0   16.666666666666668
-450.0   60.0   16.666666666666668
-500.0   60.0   16.666666666666668
-450.0   60.0   33.333333333333336
-500.0   30.0   33.333333333333336
-500.0   60.0   33.333333333333336
-450.0   60.0   33.333333333333336
-500.0   60.0   16.666666666666668
-500.0   30.0   33.333333333333336
-450.0   60.0   33.333333333333336
-450.0   30.0   33.333333333333336
-450.0   30.0   16.666666666666668
-500.0   30.0   33.333333333333336
-450.0   60.0   33.333333333333336
-450.0   30.0   16.666666666666668
-500.0   60.0   16.666666666666668
-500.0   30.0   33.333333333333336
-450.0   30.0   33.333333333333336
-500.0   60.0   33.333333333333336
-500.0   30.0   50.0
-450.0   30.0   33.333333333333336
-450.0   60.0   33.333333333333336
-500.0   60.0   33.333333333333336
-450.0   60.0   50.0
-500.0   30.0   50.0
-500.0   60.0   50.0
-450.0   60.0   50.0
-500.0   60.0   33.333333333333336
-500.0   30.0   50.0
-450.0   60.0   50.0
-450.0   30.0   50.0
-450.0   30.0   33.333333333333336
-500.0   30.0   50.0
-450.0   60.0   50.0
-450.0   30.0   33.333333333333336
-500.0   60.0   33.333333333333336
-500.0   60.0   0.0
-450.0   60.0   0.0
-500.0   90.0   0.0
-500.0   60.0   16.666666666666668
-450.0   60.0   0.0
-450.0   90.0   0.0
-500.0   90.0   0.0
-450.0   90.0   16.666666666666668
-500.0   60.0   16.666666666666668
-500.0   90.0   16.666666666666668
-450.0   90.0   16.666666666666668
-500.0   90.0   0.0
-500.0   60.0   16.666666666666668
-450.0   90.0   16.666666666666668
-450.0   60.0   16.666666666666668
-450.0   60.0   0.0
-500.0   60.0   16.666666666666668
-450.0   90.0   16.666666666666668
-450.0   60.0   0.0
-500.0   90.0   0.0
-500.0   60.0   16.666666666666668
-450.0   60.0   16.666666666666668
-500.0   90.0   16.666666666666668
-500.0   60.0   33.333333333333336
-450.0   60.0   16.666666666666668
-450.0   90.0   16.666666666666668
-500.0   90.0   16.666666666666668
-450.0   90.0   33.333333333333336
-500.0   60.0   33.333333333333336
-500.0   90.0   33.333333333333336
-450.0   90.0   33.333333333333336
-500.0   90.0   16.666666666666668
-500.0   60.0   33.333333333333336
-450.0   90.0   33.333333333333336
-450.0   60.0   33.333333333333336
-450.0   60.0   16.666666666666668
-500.0   60.0   33.333333333333336
-450.0   90.0   33.333333333333336
-450.0   60.0   16.666666666666668
-500.0   90.0   16.666666666666668
-500.0   60.0   33.333333333333336
-450.0   60.0   33.333333333333336
-500.0   90.0   33.333333333333336
-500.0   60.0   50.0
-450.0   60.0   33.333333333333336
-450.0   90.0   33.333333333333336
-500.0   90.0   33.333333333333336
-450.0   90.0   50.0
-500.0   60.0   50.0
-500.0   90.0   50.0
-450.0   90.0   50.0
-500.0   90.0   33.333333333333336
-500.0   60.0   50.0
-450.0   90.0   50.0
-450.0   60.0   50.0
-450.0   60.0   33.333333333333336
-500.0   60.0   50.0
-450.0   90.0   50.0
-450.0   60.0   33.333333333333336
-500.0   90.0   33.333333333333336
-500.0   90.0   0.0
-450.0   90.0   0.0
-500.0   120.0   0.0
-500.0   90.0   16.666666666666668
-450.0   90.0   0.0
-450.0   120.0   0.0
-500.0   120.0   0.0
-450.0   120.0   16.666666666666668
-500.0   90.0   16.666666666666668
-500.0   120.0   16.666666666666668
-450.0   120.0   16.666666666666668
-500.0   120.0   0.0
-500.0   90.0   16.666666666666668
-450.0   120.0   16.666666666666668
-450.0   90.0   16.666666666666668
-450.0   90.0   0.0
-500.0   90.0   16.666666666666668
-450.0   120.0   16.666666666666668
-450.0   90.0   0.0
-500.0   120.0   0.0
-500.0   90.0   16.666666666666668
-450.0   90.0   16.666666666666668
-500.0   120.0   16.666666666666668
-500.0   90.0   33.333333333333336
-450.0   90.0   16.666666666666668
-450.0   120.0   16.666666666666668
-500.0   120.0   16.666666666666668
-450.0   120.0   33.333333333333336
-500.0   90.0   33.333333333333336
-500.0   120.0   33.333333333333336
-450.0   120.0   33.333333333333336
-500.0   120.0   16.666666666666668
-500.0   90.0   33.333333333333336
-450.0   120.0   33.333333333333336
-450.0   90.0   33.333333333333336
-450.0   90.0   16.666666666666668
-500.0   90.0   33.333333333333336
-450.0   120.0   33.333333333333336
-450.0   90.0   16.666666666666668
-500.0   120.0   16.666666666666668
-500.0   90.0   33.333333333333336
-450.0   90.0   33.333333333333336
-500.0   120.0   33.333333333333336
-500.0   90.0   50.0
-450.0   90.0   33.333333333333336
-450.0   120.0   33.333333333333336
-500.0   120.0   33.333333333333336
-450.0   120.0   50.0
-500.0   90.0   50.0
-500.0   120.0   50.0
-450.0   120.0   50.0
-500.0   120.0   33.333333333333336
-500.0   90.0   50.0
-450.0   120.0   50.0
-450.0   90.0   50.0
-450.0   90.0   33.333333333333336
-500.0   90.0   50.0
-450.0   120.0   50.0
-450.0   90.0   33.333333333333336
-500.0   120.0   33.333333333333336
-500.0   120.0   0.0
-450.0   120.0   0.0
-500.0   150.0   0.0
-500.0   120.0   16.666666666666668
-450.0   120.0   0.0
-450.0   150.0   0.0
-500.0   150.0   0.0
-450.0   150.0   16.666666666666668
-500.0   120.0   16.666666666666668
-500.0   150.0   16.666666666666668
-450.0   150.0   16.666666666666668
-500.0   150.0   0.0
-500.0   120.0   16.666666666666668
-450.0   150.0   16.666666666666668
-450.0   120.0   16.666666666666668
-450.0   120.0   0.0
-500.0   120.0   16.666666666666668
-450.0   150.0   16.666666666666668
-450.0   120.0   0.0
-500.0   150.0   0.0
-500.0   120.0   16.666666666666668
-450.0   120.0   16.666666666666668
-500.0   150.0   16.666666666666668
-500.0   120.0   33.333333333333336
-450.0   120.0   16.666666666666668
-450.0   150.0   16.666666666666668
-500.0   150.0   16.666666666666668
-450.0   150.0   33.333333333333336
-500.0   120.0   33.333333333333336
-500.0   150.0   33.333333333333336
-450.0   150.0   33.333333333333336
-500.0   150.0   16.666666666666668
-500.0   120.0   33.333333333333336
-450.0   150.0   33.333333333333336
-450.0   120.0   33.333333333333336
-450.0   120.0   16.666666666666668
-500.0   120.0   33.333333333333336
-450.0   150.0   33.333333333333336
-450.0   120.0   16.666666666666668
-500.0   150.0   16.666666666666668
-500.0   120.0   33.333333333333336
-450.0   120.0   33.333333333333336
-500.0   150.0   33.333333333333336
-500.0   120.0   50.0
-450.0   120.0   33.333333333333336
-450.0   150.0   33.333333333333336
-500.0   150.0   33.333333333333336
-450.0   150.0   50.0
-500.0   120.0   50.0
-500.0   150.0   50.0
-450.0   150.0   50.0
-500.0   150.0   33.333333333333336
-500.0   120.0   50.0
-450.0   150.0   50.0
-450.0   120.0   50.0
-450.0   120.0   33.333333333333336
-500.0   120.0   50.0
-450.0   150.0   50.0
-450.0   120.0   33.333333333333336
-500.0   150.0   33.333333333333336
-450.0   0.0   0.0
-400.0   0.0   0.0
-450.0   30.0   0.0
-450.0   0.0   16.666666666666668
-400.0   0.0   0.0
-400.0   30.0   0.0
-450.0   30.0   0.0
-400.0   30.0   16.666666666666668
-450.0   0.0   16.666666666666668
-450.0   30.0   16.666666666666668
-400.0   30.0   16.666666666666668
-450.0   30.0   0.0
-450.0   0.0   16.666666666666668
-400.0   30.0   16.666666666666668
-400.0   0.0   16.666666666666668
-400.0   0.0   0.0
-450.0   0.0   16.666666666666668
-400.0   30.0   16.666666666666668
-400.0   0.0   0.0
-450.0   30.0   0.0
-450.0   0.0   16.666666666666668
-400.0   0.0   16.666666666666668
-450.0   30.0   16.666666666666668
[...]
          <PointData>  
             <DataArray type="Float64" NumberOfComponents="3" Name="Strains" format="ascii">   
-0.00031342412465614036   0.0   -0.0002050942785546861
-0.00031342412465614036   0.0   -0.0002050942785546861
-0.00031342412465614036   0.0   -0.0002050942785546861
-0.00031342412465614036   0.0   -0.0002050942785546861
-0.00019949784059417722   3.480186288438037e-05   5.663979279213645e-06
-0.00019949784059417722   3.480186288438037e-05   5.663979279213645e-06
-0.00019949784059417722   3.480186288438037e-05   5.663979279213645e-06
-0.00019949784059417722   3.480186288438037e-05   5.663979279213645e-06
-0.00019559449903991144   0.0   -0.00019348865603311557
-0.00019559449903991144   0.0   -0.00019348865603311557
-0.00019559449903991144   0.0   -0.00019348865603311557
-0.00019559449903991144   0.0   -0.00019348865603311557
-0.0003280652161635912   4.172560963021908e-05   2.260506728220062e-06
-0.0003280652161635912   4.172560963021908e-05   2.260506728220062e-06
-0.0003280652161635912   4.172560963021908e-05   2.260506728220062e-06
-0.0003280652161635912   4.172560963021908e-05   2.260506728220062e-06
-0.00025450931184802547   9.671352101308772e-06   -0.00010110011261370982
-0.00025450931184802547   9.671352101308772e-06   -0.00010110011261370982
-0.00025450931184802547   9.671352101308772e-06   -0.00010110011261370982
-0.00025450931184802547   9.671352101308772e-06   -0.00010110011261370982
-0.00032806521616359174   0.0   -0.00021852402181124706
-0.00032806521616359174   0.0   -0.00021852402181124706
-0.00032806521616359174   0.0   -0.00021852402181124706
-0.00032806521616359174   0.0   -0.00021852402181124706
-0.00019559449903991144   4.1725609630219134e-05   2.7295872506351607e-05
-0.00019559449903991144   4.1725609630219134e-05   2.7295872506351607e-05
-0.00019559449903991144   4.1725609630219134e-05   2.7295872506351607e-05
-0.00019559449903991144   4.1725609630219134e-05   2.7295872506351607e-05
-0.0001961916125658074   0.0   -0.00019823682598470882
-0.0001961916125658074   0.0   -0.00019823682598470882
-0.0001961916125658074   0.0   -0.00019823682598470882
-0.0001961916125658074   0.0   -0.00019823682598470882
-0.00033836840053201795   4.469224121387454e-05   1.1909142563984866e-05
-0.00033836840053201795   4.469224121387454e-05   1.1909142563984866e-05
-0.00033836840053201795   4.469224121387454e-05   1.1909142563984866e-05
-0.00033836840053201795   4.469224121387454e-05   1.1909142563984866e-05
-0.0002621284143646991   1.690599652211518e-05   -9.848575423315745e-05
-0.0002621284143646991   1.690599652211518e-05   -9.848575423315745e-05
-0.0002621284143646991   1.690599652211518e-05   -9.848575423315745e-05
-0.0002621284143646991   1.690599652211518e-05   -9.848575423315745e-05
-0.0003383684005320185   0.0   -0.0002250521707130336
-0.0003383684005320185   0.0   -0.0002250521707130336
-0.0003383684005320185   0.0   -0.0002250521707130336
-0.0003383684005320185   0.0   -0.0002250521707130336
-0.0001961916125658074   4.469224121387465e-05   3.872448729230966e-05
-0.0001961916125658074   4.469224121387465e-05   3.872448729230966e-05
-0.0001961916125658074   4.469224121387465e-05   3.872448729230966e-05
-0.0001961916125658074   4.469224121387465e-05   3.872448729230966e-05
-0.00019613978386512392   0.0   -0.0001994497410368467
-0.00019613978386512392   0.0   -0.0001994497410368467
-0.00019613978386512392   0.0   -0.0001994497410368467
-0.00019613978386512392   0.0   -0.0001994497410368467
-0.00036051914192571506   5.08809568456291e-05   4.3987281623428676e-05
-0.00036051914192571506   5.08809568456291e-05   4.3987281623428676e-05
-0.00036051914192571506   5.08809568456291e-05   4.3987281623428676e-05
-0.00036051914192571506   5.08809568456291e-05   4.3987281623428676e-05
-0.00026725409219857074   2.133535806348908e-05   -9.372710865252772e-05
-0.00026725409219857074   2.133535806348908e-05   -9.372710865252772e-05
-0.00026725409219857074   2.133535806348908e-05   -9.372710865252772e-05
-0.00026725409219857074   2.133535806348908e-05   -9.372710865252772e-05
-0.00019949784059417758   0.0   -0.00018421316082405784
-0.00019949784059417758   0.0   -0.00018421316082405784
-0.00019949784059417758   0.0   -0.00018421316082405784
-0.00019949784059417758   0.0   -0.00018421316082405784
-9.079977516826802e-05   1.2779482956032135e-05   4.617971326077215e-06
-9.079977516826802e-05   1.2779482956032135e-05   4.617971326077215e-06
-9.079977516826802e-05   1.2779482956032135e-05   4.617971326077215e-06
-9.079977516826802e-05   1.2779482956032135e-05   4.617971326077215e-06
-8.737428759992018e-05   0.0   -0.00018258814837637945
-8.737428759992018e-05   0.0   -0.00018258814837637945
-8.737428759992018e-05   0.0   -0.00018258814837637945
-8.737428759992018e-05   0.0   -0.00018258814837637945
-0.00019559449903991144   1.8167512761226847e-05   -1.312163696646346e-05
-0.00019559449903991144   1.8167512761226847e-05   -1.312163696646346e-05
-0.00019559449903991144   1.8167512761226847e-05   -1.312163696646346e-05
-0.00019559449903991144   1.8167512761226847e-05   -1.312163696646346e-05
-0.00014343606409704862   1.35417703973201e-06   -8.996436043833727e-05
-0.00014343606409704862   1.35417703973201e-06   -8.996436043833727e-05
-0.00014343606409704862   1.35417703973201e-06   -8.996436043833727e-05
-0.00014343606409704862   1.35417703973201e-06   -8.996436043833727e-05
-0.00019559449903991128   0.0   -0.0001934886560331154
-0.00019559449903991128   0.0   -0.0001934886560331154
-0.00019559449903991128   0.0   -0.0001934886560331154
-0.00019559449903991128   0.0   -0.0001934886560331154
-8.737428759992018e-05   1.8167512761226847e-05   -2.2211293097273456e-06
-8.737428759992018e-05   1.8167512761226847e-05   -2.2211293097273456e-06
-8.737428759992018e-05   1.8167512761226847e-05   -2.2211293097273456e-06
-8.737428759992018e-05   1.8167512761226847e-05   -2.2211293097273456e-06
-8.546902855981812e-05   0.0   -0.00018488953220723207
-8.546902855981812e-05   0.0   -0.00018488953220723207
-8.546902855981812e-05   0.0   -0.00018488953220723207
-8.546902855981812e-05   0.0   -0.00018488953220723207
-0.0001961916125658074   2.224548962912788e-05   -1.3699185974726713e-05
-0.0001961916125658074   2.224548962912788e-05   -1.3699185974726713e-05
-0.0001961916125658074   2.224548962912788e-05   -1.3699185974726713e-05
-0.0001961916125658074   2.224548962912788e-05   -1.3699185974726713e-05
-0.0001405317637998645   7.1659365215695535e-06   -9.741786872009572e-05
-0.0001405317637998645   7.1659365215695535e-06   -9.741786872009572e-05
-0.0001405317637998645   7.1659365215695535e-06   -9.741786872009572e-05
-0.0001405317637998645   7.1659365215695535e-06   -9.741786872009572e-05
-0.0001961916125658074   0.0   -0.00019823682598470882
-0.0001961916125658074   0.0   -0.00019823682598470882
-0.0001961916125658074   0.0   -0.00019823682598470882
-0.0001961916125658074   0.0   -0.00019823682598470882
-8.546902855981812e-05   2.224548962912788e-05   -3.518921972499691e-07
-8.546902855981812e-05   2.224548962912788e-05   -3.518921972499691e-07
-8.546902855981812e-05   2.224548962912788e-05   -3.518921972499691e-07
-8.546902855981812e-05   2.224548962912788e-05   -3.518921972499691e-07
-8.374165771337513e-05   0.0   -0.00018392508283075675
-8.374165771337513e-05   0.0   -0.00018392508283075675
-8.374165771337513e-05   0.0   -0.00018392508283075675
-8.374165771337513e-05   0.0   -0.00018392508283075675
-0.0001961397838651234   2.5874430343482912e-05   -1.2119530783931995e-05
-0.0001961397838651234   2.5874430343482912e-05   -1.2119530783931995e-05
-0.0001961397838651234   2.5874430343482912e-05   -1.2119530783931995e-05
-0.0001961397838651234   2.5874430343482912e-05   -1.2119530783931995e-05
-0.0001399666351395912   1.1926452628293265e-05   -9.737265869737257e-05
-0.0001399666351395912   1.1926452628293265e-05   -9.737265869737257e-05
-0.0001399666351395912   1.1926452628293265e-05   -9.737265869737257e-05
-0.0001399666351395912   1.1926452628293265e-05   -9.737265869737257e-05
-9.079977516826818e-05   0.0   -0.00017654547105043855
-9.079977516826818e-05   0.0   -0.00017654547105043855
-9.079977516826818e-05   0.0   -0.00017654547105043855
-9.079977516826818e-05   0.0   -0.00017654547105043855
1.1938364997409306e-05   -1.6255523103514782e-06   -6.290568827186799e-06
1.1938364997409306e-05   -1.6255523103514782e-06   -6.290568827186799e-06
1.1938364997409306e-05   -1.6255523103514782e-06   -6.290568827186799e-06
1.1938364997409306e-05   -1.6255523103514782e-06   -6.290568827186799e-06
1.4103755143591894e-05   0.0   -0.0001806587218301509
1.4103755143591894e-05   0.0   -0.0001806587218301509
1.4103755143591894e-05   0.0   -0.0001806587218301509
1.4103755143591894e-05   0.0   -0.0001806587218301509
-8.737428759992003e-05   3.2157109103798692e-06   -1.3458077137192594e-05
-8.737428759992003e-05   3.2157109103798692e-06   -1.3458077137192594e-05
-8.737428759992003e-05   3.2157109103798692e-06   -1.3458077137192594e-05
-8.737428759992003e-05   3.2157109103798692e-06   -1.3458077137192594e-05
-3.8348010012337984e-05   -3.4277089830941226e-06   -9.11824878470779e-05
-3.8348010012337984e-05   -3.4277089830941226e-06   -9.11824878470779e-05
-3.8348010012337984e-05   -3.4277089830941226e-06   -9.11824878470779e-05
-3.8348010012337984e-05   -3.4277089830941226e-06   -9.11824878470779e-05
-8.737428759992018e-05   0.0   -0.00018258814837637945
-8.737428759992018e-05   0.0   -0.00018258814837637945
-8.737428759992018e-05   0.0   -0.00018258814837637945
-8.737428759992018e-05   0.0   -0.00018258814837637945
1.410375514359192e-05   3.2157109103798692e-06   -1.1528650590964672e-05
1.410375514359192e-05   3.2157109103798692e-06   -1.1528650590964672e-05
1.410375514359192e-05   3.2157109103798692e-06   -1.1528650590964672e-05
1.410375514359192e-05   3.2157109103798692e-06   -1.1528650590964672e-05
1.58068040526277e-05   0.0   -0.00018040375656165308
1.58068040526277e-05   0.0   -0.00018040375656165308
1.58068040526277e-05   0.0   -0.00018040375656165308
1.58068040526277e-05   0.0   -0.00018040375656165308
-8.546902855981782e-05   7.476292742631156e-06   -1.6096477853155675e-05
-8.546902855981782e-05   7.476292742631156e-06   -1.6096477853155675e-05
-8.546902855981782e-05   7.476292742631156e-06   -1.6096477853155675e-05
-8.546902855981782e-05   7.476292742631156e-06   -1.6096477853155675e-05
-3.578374177364616e-05   1.8203265122717076e-06   -9.551170942522627e-05
-3.578374177364616e-05   1.8203265122717076e-06   -9.551170942522627e-05
-3.578374177364616e-05   1.8203265122717076e-06   -9.551170942522627e-05
-3.578374177364616e-05   1.8203265122717076e-06   -9.551170942522627e-05
-8.546902855981812e-05   0.0   -0.00018488953220723207
-8.546902855981812e-05   0.0   -0.00018488953220723207
-8.546902855981812e-05   0.0   -0.00018488953220723207
-8.546902855981812e-05   0.0   -0.00018488953220723207
1.5806804052627726e-05   7.476292742631156e-06   -1.1610702207577014e-05
1.5806804052627726e-05   7.476292742631156e-06   -1.1610702207577014e-05
1.5806804052627726e-05   7.476292742631156e-06   -1.1610702207577014e-05
1.5806804052627726e-05   7.476292742631156e-06   -1.1610702207577014e-05
1.8113369304992268e-05   0.0   -0.00017647678016795615
1.8113369304992268e-05   0.0   -0.00017647678016795615
1.8113369304992268e-05   0.0   -0.00017647678016795615
1.8113369304992268e-05   0.0   -0.00017647678016795615
-8.374165771337492e-05   1.2413837771334095e-05   -1.4166704466811057e-05
-8.374165771337492e-05   1.2413837771334095e-05   -1.4166704466811057e-05
-8.374165771337492e-05   1.2413837771334095e-05   -1.4166704466811057e-05
-8.374165771337492e-05   1.2413837771334095e-05   -1.4166704466811057e-05
-3.367782962741285e-05   7.010626699396346e-06   -9.436449130025202e-05
-3.367782962741285e-05   7.010626699396346e-06   -9.436449130025202e-05
-3.367782962741285e-05   7.010626699396346e-06   -9.436449130025202e-05
-3.367782962741285e-05   7.010626699396346e-06   -9.436449130025202e-05
1.1938364997409326e-05   0.0   -0.00017752080243664943
1.1938364997409326e-05   0.0   -0.00017752080243664943
1.1938364997409326e-05   0.0   -0.00017752080243664943
1.1938364997409326e-05   0.0   -0.00017752080243664943
0.00012342034930086363   -1.4475706595466829e-05   -4.0291922150556786e-07
0.00012342034930086363   -1.4475706595466829e-05   -4.0291922150556786e-07
0.00012342034930086363   -1.4475706595466829e-05   -4.0291922150556786e-07
0.00012342034930086363   -1.4475706595466829e-05   -4.0291922150556786e-07
0.0001235807655463651   0.0   -0.00018721407762070587
0.0001235807655463651   0.0   -0.00018721407762070587
0.0001235807655463651   0.0   -0.00018721407762070587
0.0001235807655463651   0.0   -0.00018721407762070587
1.4103755143591943e-05   -1.0925592984257246e-05   1.8029621744703546e-06
1.4103755143591943e-05   -1.0925592984257246e-05   1.8029621744703546e-06
1.4103755143591943e-05   -1.0925592984257246e-05   1.8029621744703546e-06
1.4103755143591943e-05   -1.0925592984257246e-05   1.8029621744703546e-06
6.775956527188721e-05   -8.077729320047033e-06   -8.933210623788111e-05
6.775956527188721e-05   -8.077729320047033e-06   -8.933210623788111e-05
6.775956527188721e-05   -8.077729320047033e-06   -8.933210623788111e-05
6.775956527188721e-05   -8.077729320047033e-06   -8.933210623788111e-05
1.4103755143591943e-05   0.0   -0.00018065872183015152
1.4103755143591943e-05   0.0   -0.00018065872183015152
1.4103755143591943e-05   0.0   -0.00018065872183015152
1.4103755143591943e-05   0.0   -0.00018065872183015152
0.0001235807655463651   -1.0925592984257246e-05   -4.752393616083993e-06
0.0001235807655463651   -1.0925592984257246e-05   -4.752393616083993e-06
0.0001235807655463651   -1.0925592984257246e-05   -4.752393616083993e-06
0.0001235807655463651   -1.0925592984257246e-05   -4.752393616083993e-06
0.00012300060241501778   0.0   -0.00018454030826511755
0.00012300060241501778   0.0   -0.00018454030826511755
0.00012300060241501778   0.0   -0.00018454030826511755
0.00012300060241501778   0.0   -0.00018454030826511755
1.5806804052627726e-05   -6.894252839106929e-06   -1.7474259576700137e-06
1.5806804052627726e-05   -6.894252839106929e-06   -1.7474259576700137e-06
1.5806804052627726e-05   -6.894252839106929e-06   -1.7474259576700137e-06
1.5806804052627726e-05   -6.894252839106929e-06   -1.7474259576700137e-06
6.855217877930487e-05   -3.2346553624716917e-06   -9.18521423214463e-05
6.855217877930487e-05   -3.2346553624716917e-06   -9.18521423214463e-05
6.855217877930487e-05   -3.2346553624716917e-06   -9.18521423214463e-05
6.855217877930487e-05   -3.2346553624716917e-06   -9.18521423214463e-05
1.5806804052627712e-05   0.0   -0.00018040375656165324
1.5806804052627712e-05   0.0   -0.00018040375656165324
1.5806804052627712e-05   0.0   -0.00018040375656165324
1.5806804052627712e-05   0.0   -0.00018040375656165324
0.00012300060241501778   -6.894252839106929e-06   -5.88397766113419e-06
0.00012300060241501778   -6.894252839106929e-06   -5.88397766113419e-06
0.00012300060241501778   -6.894252839106929e-06   -5.88397766113419e-06
0.00012300060241501778   -6.894252839106929e-06   -5.88397766113419e-06
0.00012533386059252797   0.0   -0.00017736113875440975
0.00012533386059252797   0.0   -0.00017736113875440975
0.00012533386059252797   0.0   -0.00017736113875440975
0.00012533386059252797   0.0   -0.00017736113875440975
1.81133693049923e-05   -1.4739309774222057e-06   2.224038644602974e-06
1.81133693049923e-05   -1.4739309774222057e-06   2.224038644602974e-06
1.81133693049923e-05   -1.4739309774222057e-06   2.224038644602974e-06
1.81133693049923e-05   -1.4739309774222057e-06   2.224038644602974e-06
7.057033232257779e-05   2.5355148393697196e-06   -8.760990054144788e-05
7.057033232257779e-05   2.5355148393697196e-06   -8.760990054144788e-05
7.057033232257779e-05   2.5355148393697196e-06   -8.760990054144788e-05
7.057033232257779e-05   2.5355148393697196e-06   -8.760990054144788e-05
0.00012342034930086363   0.0   -0.00018620622639392955
0.00012342034930086363   0.0   -0.00018620622639392955
0.00012342034930086363   0.0   -0.00018620622639392955
0.00012342034930086363   0.0   -0.00018620622639392955
0.0002783268640816221   -3.6656126958289296e-05   4.9977622065695815e-05
0.0002783268640816221   -3.6656126958289296e-05   4.9977622065695815e-05
0.0002783268640816221   -3.6656126958289296e-05   4.9977622065695815e-05
0.0002783268640816221   -3.6656126958289296e-05   4.9977622065695815e-05
0.0002613171450242049   0.0   -0.00020594590816465418
0.0002613171450242049   0.0   -0.00020594590816465418
0.0002613171450242049   0.0   -0.00020594590816465418
0.0002613171450242049   0.0   -0.00020594590816465418
0.0001235807655463651   -3.121971757324716e-05   4.234655484236044e-05
0.0001235807655463651   -3.121971757324716e-05   4.234655484236044e-05
0.0001235807655463651   -3.121971757324716e-05   4.234655484236044e-05
0.0001235807655463651   -3.121971757324716e-05   4.234655484236044e-05
0.00019236874716253426   -1.64497348089372e-05   -8.11620708431741e-05
0.00019236874716253426   -1.64497348089372e-05   -8.11620708431741e-05
0.00019236874716253426   -1.64497348089372e-05   -8.11620708431741e-05
0.00019236874716253426   -1.64497348089372e-05   -8.11620708431741e-05
0.000123580765546365   0.0   -0.0001872140776207057
0.000123580765546365   0.0   -0.0001872140776207057
0.000123580765546365   0.0   -0.0001872140776207057
0.000123580765546365   0.0   -0.0001872140776207057
0.00026131714502420397   -3.121971757324705e-05   2.3614724298412027e-05
0.00026131714502420397   -3.121971757324705e-05   2.3614724298412027e-05
0.00026131714502420397   -3.121971757324705e-05   2.3614724298412027e-05
0.00026131714502420397   -3.121971757324705e-05   2.3614724298412027e-05
0.0002534502993657651   0.0   -0.00020166362223029814
0.0002534502993657651   0.0   -0.00020166362223029814
0.0002534502993657651   0.0   -0.00020166362223029814
0.0002534502993657651   0.0   -0.00020166362223029814
0.00012300060241501778   -2.853885660863433e-05   3.287585331946126e-05
0.00012300060241501778   -2.853885660863433e-05   3.287585331946126e-05
0.00012300060241501778   -2.853885660863433e-05   3.287585331946126e-05
0.00012300060241501778   -2.853885660863433e-05   3.287585331946126e-05
0.000188515532456065   -1.2041287174660234e-05   -8.62142384093352e-05
0.000188515532456065   -1.2041287174660234e-05   -8.62142384093352e-05
0.000188515532456065   -1.2041287174660234e-05   -8.62142384093352e-05
0.000188515532456065   -1.2041287174660234e-05   -8.62142384093352e-05
0.00012300060241501778   0.0   -0.00018454030826511755
0.00012300060241501778   0.0   -0.00018454030826511755
0.00012300060241501778   0.0   -0.00018454030826511755
0.00012300060241501778   0.0   -0.00018454030826511755
0.00025345029936576423   -2.853885660863422e-05   1.5752539354280646e-05
0.00025345029936576423   -2.853885660863422e-05   1.5752539354280646e-05
0.00025345029936576423   -2.853885660863422e-05   1.5752539354280646e-05
0.00025345029936576423   -2.853885660863422e-05   1.5752539354280646e-05
0.00024177434445549168   0.0   -0.0001906917849852287
0.00024177434445549168   0.0   -0.0001906917849852287
0.00024177434445549168   0.0   -0.0001906917849852287
0.00024177434445549168   0.0   -0.0001906917849852287
0.00012533386059252797   -2.2217743718032086e-05   1.6706334350530402e-05
0.00012533386059252797   -2.2217743718032086e-05   1.6706334350530402e-05
0.00012533386059252797   -2.2217743718032086e-05   1.6706334350530402e-05
0.00012533386059252797   -2.2217743718032086e-05   1.6706334350530402e-05
0.00018238747343525492   -5.126230600092886e-06   -8.86379282581113e-05
0.00018238747343525492   -5.126230600092886e-06   -8.86379282581113e-05
0.00018238747343525492   -5.126230600092886e-06   -8.86379282581113e-05
0.00018238747343525492   -5.126230600092886e-06   -8.86379282581113e-05
-0.0002723889893457801   3.4801862884380316e-05   -0.00017831899635881062
-0.0002723889893457801   3.4801862884380316e-05   -0.00017831899635881062