<?xml version="1.0"?> 
<VTKFile type="UnstructuredGrid"> 
   <UnstructuredGrid> 
      <Piece NumberOfPoints="6000"  NumberOfCells="1500">  
          <Points>  
             <DataArray type="Float64" NumberOfComponents="3" format="ascii">   
-500.0   0.0   0.0
-450.0   0.0   0.0
-500.0   30.0   0.0
-500.0   0.0   16.666666666666668
-450.0   0.0   0.0
-450.0   30.0   0.0
-500.0   30.0   0.0
-450.0   30.0   16.666666666666668
-500.0   0.0   16.666666666666668
-500.0   30.0   16.666666666666668
-450.0   30.0   16.666666666666668
-500.0   30.0   0.0
-500.0   0.0   16.666666666666668
-450.0   30.0   16.666666666666668
-450.0   0.0   16.666666666666668
-450.0   0.0   0.0
-500.0   0.0   16.666666666666668
-450.0   30.0   16.666666666666668
-450.0   0.0   0.0
-500.0   30.0   0.0
-500.0   0.0   16.666666666666668
-450.0   0.0   16.666666666666668
-500.0   30.0   16.666666666666668
-500.0   0.0   33.333333333333336
-450.0   0.0   16.666666666666668
-450.0   30.0   16.666666666666668
-500.0   30.0   16.666666666666668
-450.0   30.0   33.333333333333336
-500.0   0.0   33.333333333333336
-500.0   30.0   33.333333333333336
-450.0   30.0   33.333333333333336
-500.0   30.0   16.666666666666668
-500.0   0.0   33.333333333333336
-450.0   30.0   33.333333333333336
-450.0   0.0   33.333333333333336
-450.0   0.0   16.666666666666668
-500.0   0.0   33.333333333333336
-450.0   30.0   33.333333333333336
-450.0   0.0   16.666666666666668
-500.0   30.0   16.666666666666668
-500.0   0.0   33.333333333333336
-450.0   0.0   33.333333333333336
-500.0   30.0   33.333333333333336
-500.0   0.0   50.0
-450.0   0.0   33.333333333333336
-450.0   30.0   33.333333333333336
-500.0   30.0   33.333333333333336
-450.0   30.0   50.0
-500.0   0.0   50.0
-500.0   30.0   50.0
-450.0   30.0   50.0
-500.0   30.0   33.333333333333336
-500.0   0.0   50.0
-450.0   30.0   50.0
-450.0   0.0   50.0
-450.0   0.0   33.333333333333336
-500.0   0.0   50.0
-450.0   30.0   50.0
-450.0   0.0   33.333333333333336
-500.0   30.0   33.333333333333336
-500.0   30.0   0.0
-450.0   30.0   0.0
-500.0   60.0   0.0
-500.0   30.0   16.666666666666668
-450.0   30.0   0.0
-450.0   60.0   0.0
-500.0   60.0   0.0
-450.0   60.0   16.666666666666668
-500.0   30.0   16.666666666666668
-500.0   60.0   16.666666666666668
-450.0   60.0   16.666666666666668
-500.0   60.0   0.0
-500.0   30.0   16.666666666666668
-450.0   60.0   16.666666666666668
-450.0   30.0   16.666666666666668
-450.0   30.0   0.0
-500.0   30.0   16.666666666666668
-450.0   60.0   16.666666666666668
-450.0   30.0   0.0
-500.0   60.0   0.0
-500.0   30.0   16.666666666666668
-450.0   30.0   16.666666666666668
-500.0   60.0   16.666666666666668
-500.0   30.0   33.333333333333336
-450.0   30.0   16.666666666666668
-450.0   60.0   16.666666666666668
-500.0   60.0   16.666666666666668
-450.0   60.0   33.333333333333336
-500.0   30.0   33.333333333333336
-500.0   60.0   33.333333333333336
-450.0   60.0   33.333333333333336
-500.0   60.0   16.666666666666668
-500.0   30.0   33.333333333333336
-450.0   60.0   33.333333333333336
-450.0   30.0   33.333333333333336
-450.0   30.0   16.666666666666668
-500.0   30.0   33.333333333333336
-450.0   60.0   33.333333333333336
-450.0   30.0   16.666666666666668
-500.0   60.0   16.666666666666668
-500.0   30.0   33.333333333333336
-450.0   30.0   33.333333333333336
-500.0   60.0   33.333333333333336
-500.0   30.0   50.0
-450.0   30.0   33.333333333333336
-450.0   60.0   33.333333333333336
-500.0   60.0   33.333333333333336
-450.0   60.0   50.0
-500.0   30.0   50.0
-500.0   60.0   50.0
-450.0   60.0   50.0
-500.0   60.0   33.333333333333336
-500.0   30.0   50.0
-450.0   60.0   50.0
-450.0   30.0   50.0
-450.0   30.0   33.333333333333336
-500.0   30.0   50.0
-450.0   60.0   50.0
-450.0   30.0   33.333333333333336
-500.0   60.0   33.333333333333336
-500.0   60.0   0.0
-450.0   60.0   0.0
-500.0   90.0   0.0
-500.0   60.0   16.666666666666668
-450.0   60.0   0.0
-450.0   90.0   0.0
-500.0   90.0   0.0
-450.0   90.0   16.666666666666668
-500.0   60.0   16.666666666666668
-500.0   90.0   16.666666666666668
-450.0   90.0   16.666666666666668
-500.0   90.0   0.0
-500.0   60.0   16.666666666666668
-450.0   90.0   16.666666666666668
-450.0   60.0   16.666666666666668
-450.0   60.0   0.0
-500.0   60.0   16.666666666666668
-450.0   90.0   16.666666666666668
-450.0   60.0   0.0
-500.0   90.0   0.0
-500.0   60.0   16.666666666666668
-450.0   60.0   16.666666666666668
-500.0   90.0   16.666666666666668
-500.0   60.0   33.333333333333336
-450.0   60.0   16.666666666666668
-450.0   90.0   16.666666666666668
-500.0   90.0   16.666666666666668
-450.0   90.0   33.333333333333336
-500.0   60.0   33.333333333333336
-500.0   90.0   33.333333333333336
-450.0   90.0   33.333333333333336
-500.0   90.0   16.666666666666668
-500.0   60.0   33.333333333333336
-450.0   90.0   33.333333333333336
-450.0   60.0   33.333333333333336
-450.0   60.0   16.666666666666668
-500.0   60.0   33.333333333333336
-450.0   90.0   33.333333333333336
-450.0   60.0   16.666666666666668
-500.0   90.0   16.666666666666668
-500.0   60.0   33.333333333333336
-450.0   60.0   33.333333333333336
-500.0   90.0   33.333333333333336
-500.0   60.0   50.0
-450.0   60.0   33.333333333333336
-450.0   90.0   33.333333333333336
-500.0   90.0   33.333333333333336
-450.0   90.0   50.0
-500.0   60.0   50.0
-500.0   90.0   50.0
-450.0   90.0   50.0
-500.0   90.0   33.333333333333336
-500.0   60.0   50.0
-450.0   90.0   50.0
-450.0   60.0   50.0
-450.0   60.0   33.333333333333336
-500.0   60.0   50.0
-450.0   90.0   50.0
-450.0   60.0   33.333333333333336
-500.0   90.0   33.333333333333336
-500.0   90.0   0.0
-450.0   90.0   0.0
-500.0   120.0   0.0
-500.0   90.0   16.666666666666668
-450.0   90.0   0.0
-450.0   120.0   0.0
-500.0   120.0   0.0
-450.0   120.0   16.666666666666668
-500.0   90.0   16.666666666666668
-500.0   120.0   16.666666666666668
-450.0   120.0   16.666666666666668
-500.0   120.0   0.0
-500.0   90.0   16.666666666666668
-450.0   120.0   16.666666666666668
-450.0   90.0   16.666666666666668
-450.0   90.0   0.0
-500.0   90.0   16.666666666666668
-450.0   120.0   16.666666666666668
-450.0   90.0   0.0
-500.0   120.0   0.0
-500.0   90.0   16.666666666666668
-450.0   90.0   16.666666666666668
-500.0   120.0   16.666666666666668
-500.0   90.0   33.333333333333336
-450.0   90.0   16.666666666666668
-450.0   120.0   16.666666666666668
-500.0   120.0   16.666666666666668
-450.0   120.0   33.333333333333336
-500.0   90.0   33.333333333333336
-500.0   120.0   33.333333333333336
-450.0   120.0   33.333333333333336
-500.0   120.0   16.666666666666668
-500.0   90.0   33.333333333333336
-450.0   120.0   33.333333333333336
-450.0   90.0   33.333333333333336
-450.0   90.0   16.666666666666668
-500.0   90.0   33.333333333333336
-450.0   120.0   33.333333333333336
-450.0   90.0   16.666666666666668
-500.0   120.0   16.666666666666668
-500.0   90.0   33.333333333333336
-450.0   90.0   33.333333333333336
-500.0   120.0   33.333333333333336
-500.0   90.0   50.0
-450.0   90.0   33.333333333333336
-450.0   120.0   33.333333333333336
-500.0   120.0   33.333333333333336
-450.0   120.0   50.0
-500.0   90.0   50.0
-500.0   120.0   50.0
-450.0   120.0   50.0
-500.0   120.0   33.333333333333336
-500.0   90.0   50.0
-450.0   120.0   50.0
-450.0   90.0   50.0
-450.0   90.0   33.333333333333336
-500.0   90.0   50.0
-450.0   120.0   50.0
-450.0   90.0   33.333333333333336
-500.0   120.0   33.333333333333336
-500.0   120.0   0.0
-450.0   120.0   0.0
-500.0   150.0   0.0
-500.0   120.0   16.666666666666668
-450.0   120.0   0.0
-450.0   150.0   0.0
-500.0   150.0   0.0
-450.0   150.0   16.666666666666668
-500.0   120.0   16.666666666666668
-500.0   150.0   16.666666666666668
-450.0   150.0   16.666666666666668
-500.0   150.0   0.0
-500.0   120.0   16.666666666666668
-450.0   150.0   16.666666666666668
-450.0   120.0   16.666666666666668
-450.0   120.0   0.0
-500.0   120.0   16.666666666666668
-450.0   150.0   16.666666666666668
-450.0   120.0   0.0
-500.0   150.0   0.0
-500.0   120.0   16.666666666666668
-450.0   120.0   16.666666666666668
-500.0   150.0   16.666666666666668
-500.0   120.0   33.333333333333336
-450.0   120.0   16.666666666666668
-450.0   150.0   16.666666666666668
-500.0   150.0   16.666666666666668
-450.0   150.0   33.333333333333336
-500.0   120.0   33.333333333333336
-500.0   150.0   33.333333333333336
-450.0   150.0   33.333333333333336
-500.0   150.0   16.666666666666668
-500.0   120.0   33.333333333333336
-450.0   150.0   33.333333333333336
-450.0   120.0   33.333333333333336
-450.0   120.0   16.666666666666668
-500.0   120.0   33.333333333333336
-450.0   150.0   33.333333333333336
-450.0   120.0   16.666666666666668
-500.0   150.0   16.666666666666668
-500.0   120.0   33.333333333333336
-450.0   120.0   33.333333333333336
-500.0   150.0   33.333333333333336
-500.0   120.0   50.0
-450.0   120.0   33.333333333333336
-450.0   150.0   33.333333333333336
-500.0   150.0   33.333333333333336
-450.0   150.0   50.0
-500.0   120.0   50.0
-500.0   150.0   50.0
-450.0   150.0   50.0
-500.0   150.0   33.333333333333336
-500.0   120.0   50.0
-450.0   150.0   50.0
-450.0   120.0   50.0
-450.0   120.0   33.333333333333336
-500.0   120.0   50.0
-450.0   150.0   50.0
-450.0   120.0   33.333333333333336
-500.0   150.0   33.333333333333336
-450.0   0.0   0.0
-400.0   0.0   0.0
-450.0   30.0   0.0
-450.0   0.0   16.666666666666668
-400.0   0.0   0.0
-400.0   30.0   0.0
-450.0   30.0   0.0
-400.0   30.0   16.666666666666668
-450.0   0.0   16.666666666666668
-450.0   30.0   16.666666666666668
-400.0   30.0   16.666666666666668
-450.0   30.0   0.0
-450.0   0.0   16.666666666666668
-400.0   30.0   16.666666666666668
-400.0   0.0   16.666666666666668
-400.0   0.0   0.0
-450.0   0.0   16.666666666666668
-400.0   30.0   16.666666666666668
-400.0   0.0   0.0
-450.0   30.0   0.0
-450.0   0.0   16.666666666666668
-400.0   0.0   16.666666666666668
-450.0   30.0   16.666666666666668
[...]
          <PointData>  
             <DataArray type="Float64" NumberOfComponents="3" Name="Strains" format="ascii">   
-0.0006263538703274119   0.0   -0.0004096035263897311
-0.0006263538703274119   0.0   -0.0004096035263897311
-0.0006263538703274119   0.0   -0.0004096035263897311
-0.0006263538703274119   0.0   -0.0004096035263897311
-0.00039870687354984214   6.958353287009821e-05   1.1558254628276743e-05
-0.00039870687354984214   6.958353287009821e-05   1.1558254628276743e-05
-0.00039870687354984214   6.958353287009821e-05   1.1558254628276743e-05
-0.00039870687354984214   6.958353287009821e-05   1.1558254628276743e-05
-0.0003909237333993573   0.0   -0.0003863908406664114
-0.0003909237333993573   0.0   -0.0003863908406664114
-0.0003909237333993573   0.0   -0.0003863908406664114
-0.0003909237333993573   0.0   -0.0003863908406664114
-0.0006556350915578966   8.34104905433784e-05   4.74846193846204e-06
-0.0006556350915578966   8.34104905433784e-05   4.74846193846204e-06
-0.0006556350915578966   8.34104905433784e-05   4.74846193846204e-06
-0.0006556350915578966   8.34104905433784e-05   4.74846193846204e-06
-0.0005086388018633837   1.9343904769433102e-05   -0.0002018054027546919
-0.0005086388018633837   1.9343904769433102e-05   -0.0002018054027546919
-0.0005086388018633837   1.9343904769433102e-05   -0.0002018054027546919
-0.0005086388018633837   1.9343904769433102e-05   -0.0002018054027546919
-0.0006556350915578977   0.0   -0.00043643713499243853
-0.0006556350915578977   0.0   -0.00043643713499243853
-0.0006556350915578977   0.0   -0.00043643713499243853
-0.0006556350915578977   0.0   -0.00043643713499243853
-0.0003909237333993573   8.341049054337861e-05   5.479475626448912e-05
-0.0003909237333993573   8.341049054337861e-05   5.479475626448912e-05
-0.0003909237333993573   8.341049054337861e-05   5.479475626448912e-05
-0.0003909237333993573   8.341049054337861e-05   5.479475626448912e-05
-0.0003921364938206023   0.0   -0.0003958780156387206
-0.0003921364938206023   0.0   -0.0003958780156387206
-0.0003921364938206023   0.0   -0.0003958780156387206
-0.0003921364938206023   0.0   -0.0003958780156387206
-0.0006762496365794317   8.933635447080218e-05   2.4042076276848713e-05
-0.0006762496365794317   8.933635447080218e-05   2.4042076276848713e-05
-0.0006762496365794317   8.933635447080218e-05   2.4042076276848713e-05
-0.0006762496365794317   8.933635447080218e-05   2.4042076276848713e-05
-0.0005238857926892491   3.379926612809823e-05   -0.00019657541053449962
-0.0005238857926892491   3.379926612809823e-05   -0.00019657541053449962
-0.0005238857926892491   3.379926612809823e-05   -0.00019657541053449962
-0.0005238857926892491   3.379926612809823e-05   -0.00019657541053449962
-0.0006762496365794329   0.0   -0.000449479828321202
-0.0006762496365794329   0.0   -0.000449479828321202
-0.0006762496365794329   0.0   -0.000449479828321202
-0.0006762496365794329   0.0   -0.000449479828321202
-0.0003921364938206023   8.93363544708024e-05   7.764388895933015e-05
-0.0003921364938206023   8.93363544708024e-05   7.764388895933015e-05
-0.0003921364938206023   8.93363544708024e-05   7.764388895933015e-05
-0.0003921364938206023   8.93363544708024e-05   7.764388895933015e-05
-0.0003920547017004862   0.0   -0.0003982984502367864
-0.0003920547017004862   0.0   -0.0003982984502367864
-0.0003920547017004862   0.0   -0.0003982984502367864
-0.0003920547017004862   0.0   -0.0003982984502367864
-0.0007205495985912284   0.0001016930549230362   8.817721162729711e-05
-0.0007205495985912284   0.0001016930549230362   8.817721162729711e-05
-0.0007205495985912284   0.0001016930549230362   8.817721162729711e-05
-0.0007205495985912284   0.0001016930549230362   8.817721162729711e-05
-0.0005341521691399586   4.265114840367964e-05   -0.00018706002687987144
-0.0005341521691399586   4.265114840367964e-05   -0.00018706002687987144
-0.0005341521691399586   4.265114840367964e-05   -0.00018706002687987144
-0.0005341521691399586   4.265114840367964e-05   -0.00018706002687987144
-0.0003987068735498428   0.0   -0.00036785340666767216
-0.0003987068735498428   0.0   -0.00036785340666767216
-0.0003987068735498428   0.0   -0.00036785340666767216
-0.0003987068735498428   0.0   -0.00036785340666767216
-0.0001814457281701459   2.5558230924427328e-05   9.583440853145513e-06
-0.0001814457281701459   2.5558230924427328e-05   9.583440853145513e-06
-0.0001814457281701459   2.5558230924427328e-05   9.583440853145513e-06
-0.0001814457281701459   2.5558230924427328e-05   9.583440853145513e-06
-0.00017461942366930273   0.0   -0.0003645972871053605
-0.00017461942366930273   0.0   -0.0003645972871053605
-0.00017461942366930273   0.0   -0.0003645972871053605
-0.00017461942366930273   0.0   -0.0003645972871053605
-0.0003909237333993573   3.6322589268418114e-05   -2.588365778298724e-05
-0.0003909237333993573   3.6322589268418114e-05   -2.588365778298724e-05
-0.0003909237333993573   3.6322589268418114e-05   -2.588365778298724e-05
-0.0003909237333993573   3.6322589268418114e-05   -2.588365778298724e-05
-0.0002866631486095723   2.713432968592998e-06   -0.00017948580531939912
-0.0002866631486095723   2.713432968592998e-06   -0.00017948580531939912
-0.0002866631486095723   2.713432968592998e-06   -0.00017948580531939912
-0.0002866631486095723   2.713432968592998e-06   -0.00017948580531939912
-0.000390923733399357   0.0   -0.00038639084066641107
-0.000390923733399357   0.0   -0.00038639084066641107
-0.000390923733399357   0.0   -0.00038639084066641107
-0.000390923733399357   0.0   -0.00038639084066641107
-0.00017461942366930273   3.6322589268418114e-05   -4.090104221936308e-06
-0.00017461942366930273   3.6322589268418114e-05   -4.090104221936308e-06
-0.00017461942366930273   3.6322589268418114e-05   -4.090104221936308e-06
-0.00017461942366930273   3.6322589268418114e-05   -4.090104221936308e-06
-0.00017083064315485147   0.0   -0.0003691967740703421
-0.00017083064315485147   0.0   -0.0003691967740703421
-0.00017083064315485147   0.0   -0.0003691967740703421
-0.00017083064315485147   0.0   -0.0003691967740703421
-0.0003921364938206023   4.446873594729755e-05   -2.703493119580254e-05
-0.0003921364938206023   4.446873594729755e-05   -2.703493119580254e-05
-0.0003921364938206023   4.446873594729755e-05   -2.703493119580254e-05
-0.0003921364938206023   4.446873594729755e-05   -2.703493119580254e-05
-0.00028087718827710383   1.4328388830057753e-05   -0.0001943828988312879
-0.00028087718827710383   1.4328388830057753e-05   -0.0001943828988312879
-0.00028087718827710383   1.4328388830057753e-05   -0.0001943828988312879
-0.00028087718827710383   1.4328388830057753e-05   -0.0001943828988312879
-0.0003921364938206023   0.0   -0.0003958780156387206
-0.0003921364938206023   0.0   -0.0003958780156387206
-0.0003921364938206023   0.0   -0.0003958780156387206
-0.0003921364938206023   0.0   -0.0003958780156387206
-0.00017083064315485147   4.446873594729755e-05   -3.5368962742398855e-07
-0.00017083064315485147   4.446873594729755e-05   -3.5368962742398855e-07
-0.00017083064315485147   4.446873594729755e-05   -3.5368962742398855e-07
-0.00017083064315485147   4.446873594729755e-05   -3.5368962742398855e-07
-0.0001673988804074713   0.0   -0.0003672674075613406
-0.0001673988804074713   0.0   -0.0003672674075613406
-0.0001673988804074713   0.0   -0.0003672674075613406
-0.0001673988804074713   0.0   -0.0003672674075613406
-0.0003920547017004852   5.171840445907568e-05   -2.3872081415094695e-05
-0.0003920547017004852   5.171840445907568e-05   -2.3872081415094695e-05
-0.0003920547017004852   5.171840445907568e-05   -2.3872081415094695e-05
-0.0003920547017004852   5.171840445907568e-05   -2.3872081415094695e-05
-0.0002797676871140367   2.3842173397816443e-05   -0.000194291367089088
-0.0002797676871140367   2.3842173397816443e-05   -0.000194291367089088
-0.0002797676871140367   2.3842173397816443e-05   -0.000194291367089088
-0.0002797676871140367   2.3842173397816443e-05   -0.000194291367089088
-0.00018144572817014622   0.0   -0.0003525184681130157
-0.00018144572817014622   0.0   -0.0003525184681130157
-0.00018144572817014622   0.0   -0.0003525184681130157
-0.00018144572817014622   0.0   -0.0003525184681130157
2.391949482651925e-05   -3.245989550091418e-06   -1.2190690181961086e-05
2.391949482651925e-05   -3.245989550091418e-06   -1.2190690181961086e-05
2.391949482651925e-05   -3.245989550091418e-06   -1.2190690181961086e-05
2.391949482651925e-05   -3.245989550091418e-06   -1.2190690181961086e-05
2.8225589856368273e-05   0.0   -0.00036074107921305775
2.8225589856368273e-05   0.0   -0.00036074107921305775
2.8225589856368273e-05   0.0   -0.00036074107921305775
2.8225589856368273e-05   0.0   -0.00036074107921305775
-0.00017461942366930243   6.427013153835807e-06   -2.6522264562575367e-05
-0.00017461942366930243   6.427013153835807e-06   -2.6522264562575367e-05
-0.00017461942366930243   6.427013153835807e-06   -2.6522264562575367e-05
-0.00017461942366930243   6.427013153835807e-06   -2.6522264562575367e-05
-7.661006915688866e-05   -6.852175916702708e-06   -0.00018190367530760782
-7.661006915688866e-05   -6.852175916702708e-06   -0.00018190367530760782
-7.661006915688866e-05   -6.852175916702708e-06   -0.00018190367530760782
-7.661006915688866e-05   -6.852175916702708e-06   -0.00018190367530760782
-0.00017461942366930273   0.0   -0.0003645972871053605
-0.00017461942366930273   0.0   -0.0003645972871053605
-0.00017461942366930273   0.0   -0.0003645972871053605
-0.00017461942366930273   0.0   -0.0003645972871053605
2.8225589856368324e-05   6.427013153835807e-06   -2.2666056670273857e-05
2.8225589856368324e-05   6.427013153835807e-06   -2.2666056670273857e-05
2.8225589856368324e-05   6.427013153835807e-06   -2.2666056670273857e-05
2.8225589856368324e-05   6.427013153835807e-06   -2.2666056670273857e-05
3.160965598557079e-05   0.0   -0.00036023345393968977
3.160965598557079e-05   0.0   -0.00036023345393968977
3.160965598557079e-05   0.0   -0.00036023345393968977
3.160965598557079e-05   0.0   -0.00036023345393968977
-0.00017083064315485087   1.493886688441943e-05   -3.1796275502971516e-05
-0.00017083064315485087   1.493886688441943e-05   -3.1796275502971516e-05
-0.00017083064315485087   1.493886688441943e-05   -3.1796275502971516e-05
-0.00017083064315485087   1.493886688441943e-05   -3.1796275502971516e-05
-7.150488384186582e-05   3.636527638058466e-06   -0.0001905578041434637
-7.150488384186582e-05   3.636527638058466e-06   -0.0001905578041434637
-7.150488384186582e-05   3.636527638058466e-06   -0.0001905578041434637
-7.150488384186582e-05   3.636527638058466e-06   -0.0001905578041434637
-0.00017083064315485147   0.0   -0.0003691967740703421
-0.00017083064315485147   0.0   -0.0003691967740703421
-0.00017083064315485147   0.0   -0.0003691967740703421
-0.00017083064315485147   0.0   -0.0003691967740703421
3.1609655985570844e-05   1.493886688441943e-05   -2.2832955372319912e-05
3.1609655985570844e-05   1.493886688441943e-05   -2.2832955372319912e-05
3.1609655985570844e-05   1.493886688441943e-05   -2.2832955372319912e-05
3.1609655985570844e-05   1.493886688441943e-05   -2.2832955372319912e-05
3.6199543346964274e-05   0.0   -0.000352384815517851
3.6199543346964274e-05   0.0   -0.000352384815517851
3.6199543346964274e-05   0.0   -0.000352384815517851
3.6199543346964274e-05   0.0   -0.000352384815517851
-0.00016739888040747086   2.4804320072482097e-05   -2.7936701303947964e-05
-0.00016739888040747086   2.4804320072482097e-05   -2.7936701303947964e-05
-0.00016739888040747086   2.4804320072482097e-05   -2.7936701303947964e-05
-0.00016739888040747086   2.4804320072482097e-05   -2.7936701303947964e-05
-6.731554990394345e-05   1.4009965460408662e-05   -0.00018826563937591654
-6.731554990394345e-05   1.4009965460408662e-05   -0.00018826563937591654
-6.731554990394345e-05   1.4009965460408662e-05   -0.00018826563937591654
-6.731554990394345e-05   1.4009965460408662e-05   -0.00018826563937591654
2.391949482651929e-05   0.0   -0.00035446606184307055
2.391949482651929e-05   0.0   -0.00035446606184307055
2.391949482651929e-05   0.0   -0.00035446606184307055
2.391949482651929e-05   0.0   -0.00035446606184307055
0.0002467465081860245   -2.8940264023329543e-05   -4.518646578927565e-07
0.0002467465081860245   -2.8940264023329543e-05   -4.518646578927565e-07
0.0002467465081860245   -2.8940264023329543e-05   -4.518646578927565e-07
0.0002467465081860245   -2.8940264023329543e-05   -4.518646578927565e-07
0.00024704295343300296   0.0   -0.0003738500087269074
0.00024704295343300296   0.0   -0.0003738500087269074
0.00024704295343300296   0.0   -0.0003738500087269074
0.00024704295343300296   0.0   -0.0003738500087269074
2.822558985636837e-05   -2.184821585641389e-05   3.9545267479985415e-06
2.822558985636837e-05   -2.184821585641389e-05   3.9545267479985415e-06
2.822558985636837e-05   -2.184821585641389e-05   3.9545267479985415e-06
2.822558985636837e-05   -2.184821585641389e-05   3.9545267479985415e-06
0.00013548122412976112   -1.6153289069864e-05   -0.0001782218197795858
0.00013548122412976112   -1.6153289069864e-05   -0.0001782218197795858
0.00013548122412976112   -1.6153289069864e-05   -0.0001782218197795858
0.00013548122412976112   -1.6153289069864e-05   -0.0001782218197795858
2.822558985636837e-05   0.0   -0.00036074107921305905
2.822558985636837e-05   0.0   -0.00036074107921305905
2.822558985636837e-05   0.0   -0.00036074107921305905
2.822558985636837e-05   0.0   -0.00036074107921305905
0.00024704295343300296   -2.184821585641389e-05   -9.154402765849793e-06
0.00024704295343300296   -2.184821585641389e-05   -9.154402765849793e-06
0.00024704295343300296   -2.184821585641389e-05   -9.154402765849793e-06
0.00024704295343300296   -2.184821585641389e-05   -9.154402765849793e-06
0.00024586226289424035   0.0   -0.00036851055221599055
0.00024586226289424035   0.0   -0.00036851055221599055
0.00024586226289424035   0.0   -0.00036851055221599055
0.00024586226289424035   0.0   -0.00036851055221599055
3.1609655985570844e-05   -1.3795163793833571e-05   -3.1457757585745704e-06
3.1609655985570844e-05   -1.3795163793833571e-05   -3.1457757585745704e-06
3.1609655985570844e-05   -1.3795163793833571e-05   -3.1457757585745704e-06
3.1609655985570844e-05   -1.3795163793833571e-05   -3.1457757585745704e-06
0.00013704392637530437   -6.474560835776277e-06   -0.00018326192151629802
0.00013704392637530437   -6.474560835776277e-06   -0.00018326192151629802
0.00013704392637530437   -6.474560835776277e-06   -0.00018326192151629802
0.00013704392637530437   -6.474560835776277e-06   -0.00018326192151629802
3.160965598557082e-05   0.0   -0.0003602334539396901
3.160965598557082e-05   0.0   -0.0003602334539396901
3.160965598557082e-05   0.0   -0.0003602334539396901
3.160965598557082e-05   0.0   -0.0003602334539396901
0.00024586226289424035   -1.3795163793833571e-05   -1.1422874034874722e-05
0.00024586226289424035   -1.3795163793833571e-05   -1.1422874034874722e-05
0.00024586226289424035   -1.3795163793833571e-05   -1.1422874034874722e-05
0.00024586226289424035   -1.3795163793833571e-05   -1.1422874034874722e-05
0.00025050603301954836   0.0   -0.0003541645273244263
0.00025050603301954836   0.0   -0.0003541645273244263
0.00025050603301954836   0.0   -0.0003541645273244263
0.00025050603301954836   0.0   -0.0003541645273244263
3.6199543346964335e-05   -2.9661863442912058e-06   4.792667269788378e-06
3.6199543346964335e-05   -2.9661863442912058e-06   4.792667269788378e-06
3.6199543346964335e-05   -2.9661863442912058e-06   4.792667269788378e-06
3.6199543346964335e-05   -2.9661863442912058e-06   4.792667269788378e-06
0.0001410578445025595   5.057438846053398e-06   -0.00017478534310374344
0.0001410578445025595   5.057438846053398e-06   -0.00017478534310374344
0.0001410578445025595   5.057438846053398e-06   -0.00017478534310374344
0.0001410578445025595   5.057438846053398e-06   -0.00017478534310374344
0.0002467465081860245   0.0   -0.0003718302202570683
0.0002467465081860245   0.0   -0.0003718302202570683
0.0002467465081860245   0.0   -0.0003718302202570683
0.0002467465081860245   0.0   -0.0003718302202570683
0.0005563130205882293   -7.32676972681665e-05   0.00010015334871904264
0.0005563130205882293   -7.32676972681665e-05   0.00010015334871904264
0.0005563130205882293   -7.32676972681665e-05   0.00010015334871904264
0.0005563130205882293   -7.32676972681665e-05   0.00010015334871904264
0.000522282850946636   0.0   -0.00041129859879147327
0.000522282850946636   0.0   -0.00041129859879147327
0.000522282850946636   0.0   -0.00041129859879147327
0.000522282850946636   0.0   -0.00041129859879147327
0.00024704295343300296   -6.241431677427652e-05   8.48831537958142e-05
0.00024704295343300296   -6.241431677427652e-05   8.48831537958142e-05
0.00024704295343300296   -6.241431677427652e-05   8.48831537958142e-05
0.00024704295343300296   -6.241431677427652e-05   8.48831537958142e-05
0.00038451467956633026   -3.2890315445337486e-05   -0.0001619507905570944
0.00038451467956633026   -3.2890315445337486e-05   -0.0001619507905570944
0.00038451467956633026   -3.2890315445337486e-05   -0.0001619507905570944
0.00038451467956633026   -3.2890315445337486e-05   -0.0001619507905570944
0.00024704295343300274   0.0   -0.00037385000872690706
0.00024704295343300274   0.0   -0.00037385000872690706
0.00024704295343300274   0.0   -0.00037385000872690706
0.00024704295343300274   0.0   -0.00037385000872690706
0.0005222828509466341   -6.241431677427619e-05   4.743456373124816e-05
0.0005222828509466341   -6.241431677427619e-05   4.743456373124816e-05
0.0005222828509466341   -6.241431677427619e-05   4.743456373124816e-05
0.0005222828509466341   -6.241431677427619e-05   4.743456373124816e-05
0.0005065347831648737   0.0   -0.0004027461314396622
0.0005065347831648737   0.0   -0.0004027461314396622
0.0005065347831648737   0.0   -0.0004027461314396622
0.0005065347831648737   0.0   -0.0004027461314396622
0.00024586226289424035   -5.705929870611945e-05   6.594364823506475e-05
0.00024586226289424035   -5.705929870611945e-05   6.594364823506475e-05
0.00024586226289424035   -5.705929870611945e-05   6.594364823506475e-05
0.00024586226289424035   -5.705929870611945e-05   6.594364823506475e-05
0.00037678886829893804   -2.4080102260629055e-05   -0.0001720548786400589
0.00037678886829893804   -2.4080102260629055e-05   -0.0001720548786400589
0.00037678886829893804   -2.4080102260629055e-05   -0.0001720548786400589
0.00037678886829893804   -2.4080102260629055e-05   -0.0001720548786400589
0.00024586226289424035   0.0   -0.00036851055221599055
0.00024586226289424035   0.0   -0.00036851055221599055
0.00024586226289424035   0.0   -0.00036851055221599055
0.00024586226289424035   0.0   -0.00036851055221599055
0.0005065347831648718   -5.705929870611923e-05   3.170806901139304e-05
0.0005065347831648718   -5.705929870611923e-05   3.170806901139304e-05
0.0005065347831648718   -5.705929870611923e-05   3.170806901139304e-05
0.0005065347831648718   -5.705929870611923e-05   3.170806901139304e-05
0.0004831760592700494   0.0   -0.00038082625406254966
0.0004831760592700494   0.0   -0.00038082625406254966
0.0004831760592700494   0.0   -0.00038082625406254966
0.0004831760592700494   0.0   -0.00038082625406254966
0.00025050603301954836   -4.443621123020663e-05   3.3618849759743435e-05
0.00025050603301954836   -4.443621123020663e-05   3.3618849759743435e-05
0.00025050603301954836   -4.443621123020663e-05   3.3618849759743435e-05
0.00025050603301954836   -4.443621123020663e-05   3.3618849759743435e-05
0.00036451916108214534   -1.0263084872133132e-05   -0.0001769069061594287
0.00036451916108214534   -1.0263084872133132e-05   -0.0001769069061594287
0.00036451916108214534   -1.0263084872133132e-05   -0.0001769069061594287
0.00036451916108214534   -1.0263084872133132e-05   -0.0001769069061594287
-0.0005445419352821671   6.95835328700981e-05   -0.0003563098281304678
-0.0005445419352821671   6.95835328700981e-05   -0.0003563098281304678
-0.0005445419352821671   6.95835328700981e-05   -0.0003563098281304678
-0.0005445419352821671   6.95835328700981e-05   -0.0003563098281304678