<?xml version="1.0"?> 
<VTKFile type="UnstructuredGrid"> 
   <UnstructuredGrid> 
      <Piece NumberOfPoints="6000"  NumberOfCells="1500">  
          <Points>  
             <DataArray type="Float64" NumberOfComponents="3" format="ascii">   
-500.0   0.0   0.0
-450.0   0.0   0.0
-500.0   30.0   0.0
-500.0   0.0   16.666666666666668
-450.0   0.0   0.0
-450.0   30.0   0.0
-500.0   30.0   0.0
-450.0   30.0   16.666666666666668
-500.0   0.0   16.666666666666668
-500.0   30.0   16.666666666666668
-450.0   30.0   16.666666666666668
-500.0   30.0   0.0
-500.0   0.0   16.666666666666668
-450.0   30.0   16.666666666666668
-450.0   0.0   16.666666666666668
-450.0   0.0   0.0
-500.0   0.0   16.666666666666668
-450.0   30.0   16.666666666666668
-450.0   0.0   0.0
-500.0   30.0   0.0
-500.0   0.0   16.666666666666668
-450.0   0.0   16.666666666666668
-500.0   30.0   16.666666666666668
-500.0   0.0   33.333333333333336
-450.0   0.0   16.666666666666668
-450.0   30.0   16.666666666666668
-500.0   30.0   16.666666666666668
-450.0   30.0   33.333333333333336
-500.0   0.0   33.333333333333336
-500.0   30.0   33.333333333333336
-450.0   30.0   33.333333333333336
-500.0   30.0   16.666666666666668
-500.0   0.0   33.333333333333336
-450.0   30.0   33.333333333333336
-450.0   0.0   33.333333333333336
-450.0   0.0   16.666666666666668
-500.0   0.0   33.333333333333336
-450.0   30.0   33.333333333333336
-450.0   0.0   16.666666666666668
-500.0   30.0   16.666666666666668
-500.0   0.0   33.333333333333336
-450.0   0.0   33.333333333333336
-500.0   30.0   33.333333333333336
-500.0   0.0   50.0
-450.0   0.0   33.333333333333336
-450.0   30.0   33.333333333333336
-500.0   30.0   33.333333333333336
-450.0   30.0   50.0
-500.0   0.0   50.0
-500.0   30.0   50.0
-450.0   30.0   50.0
-500.0   30.0   33.333333333333336
-500.0   0.0   50.0
-450.0   30.0   50.0
-450.0   0.0   50.0
-450.0   0.0   33.333333333333336
-500.0   0.0   50.0
-450.0   30.0   50.0
-450.0   0.0   33.333333333333336
-500.0   30.0   33.333333333333336
-500.0   30.0   0.0
-450.0   30.0   0.0
-500.0   60.0   0.0
-500.0   30.0   16.666666666666668
-450.0   30.0   0.0
-450.0   60.0   0.0
-500.0   60.0   0.0
-450.0   60.0   16.666666666666668
-500.0   30.0   16.666666666666668
-500.0   60.0   16.666666666666668
-450.0   60.0   16.666666666666668
-500.0   60.0   0.0
-500.0   30.0   16.666666666666668
-450.0   60.0   16.666666666666668
-450.0   30.0   16.666666666666668
-450.0   30.0   0.0
-500.0   30.0   16.666666666666668
-450.0   60.0   16.666666666666668
-450.0   30.0   0.0
-500.0   60.0   0.0
-500.0   30.0   16.666666666666668
-450.0   30.0   16.666666666666668
-500.0   60.0   16.666666666666668
-500.0   30.0   33.333333333333336
-450.0   30.0   16.666666666666668
-450.0   60.0   16.666666666666668
-500.0   60.0   16.666666666666668
-450.0   60.0   33.333333333333336
-500.0   30.0   33.333333333333336
-500.0   60.0   33.333333333333336
-450.0   60.0   33.333333333333336
-500.0   60.0   16.666666666666668
-500.0   30.0   33.333333333333336
-450.0   60.0   33.333333333333336
-450.0   30.0   33.333333333333336
-450.0   30.0   16.666666666666668
-500.0   30.0   33.333333333333336
-450.0   60.0   33.333333333333336
-450.0   30.0   16.666666666666668
-500.0   60.0   16.666666666666668
-500.0   30.0   33.333333333333336
-450.0   30.0   33.333333333333336
-500.0   60.0   33.333333333333336
-500.0   30.0   50.0
-450.0   30.0   33.333333333333336
-450.0   60.0   33.333333333333336
-500.0   60.0   33.333333333333336
-450.0   60.0   50.0
-500.0   30.0   50.0
-500.0   60.0   50.0
-450.0   60.0   50.0
-500.0   60.0   33.333333333333336
-500.0   30.0   50.0
-450.0   60.0   50.0
-450.0   30.0   50.0
-450.0   30.0   33.333333333333336
-500.0   30.0   50.0
-450.0   60.0   50.0
-450.0   30.0   33.333333333333336
-500.0   60.0   33.333333333333336
-500.0   60.0   0.0
-450.0   60.0   0.0
-500.0   90.0   0.0
-500.0   60.0   16.666666666666668
-450.0   60.0   0.0
-450.0   90.0   0.0
-500.0   90.0   0.0
-450.0   90.0   16.666666666666668
-500.0   60.0   16.666666666666668
-500.0   90.0   16.666666666666668
-450.0   90.0   16.666666666666668
-500.0   90.0   0.0
-500.0   60.0   16.666666666666668
-450.0   90.0   16.666666666666668
-450.0   60.0   16.666666666666668
-450.0   60.0   0.0
-500.0   60.0   16.666666666666668
-450.0   90.0   16.666666666666668
-450.0   60.0   0.0
-500.0   90.0   0.0
-500.0   60.0   16.666666666666668
-450.0   60.0   16.666666666666668
-500.0   90.0   16.666666666666668
-500.0   60.0   33.333333333333336
-450.0   60.0   16.666666666666668
-450.0   90.0   16.666666666666668
-500.0   90.0   16.666666666666668
-450.0   90.0   33.333333333333336
-500.0   60.0   33.333333333333336
-500.0   90.0   33.333333333333336
-450.0   90.0   33.333333333333336
-500.0   90.0   16.666666666666668
-500.0   60.0   33.333333333333336
-450.0   90.0   33.333333333333336
-450.0   60.0   33.333333333333336
-450.0   60.0   16.666666666666668
-500.0   60.0   33.333333333333336
-450.0   90.0   33.333333333333336
-450.0   60.0   16.666666666666668
-500.0   90.0   16.666666666666668
-500.0   60.0   33.333333333333336
-450.0   60.0   33.333333333333336
-500.0   90.0   33.333333333333336
-500.0   60.0   50.0
-450.0   60.0   33.333333333333336
-450.0   90.0   33.333333333333336
-500.0   90.0   33.333333333333336
-450.0   90.0   50.0
-500.0   60.0   50.0
-500.0   90.0   50.0
-450.0   90.0   50.0
-500.0   90.0   33.333333333333336
-500.0   60.0   50.0
-450.0   90.0   50.0
-450.0   60.0   50.0
-450.0   60.0   33.333333333333336
-500.0   60.0   50.0
-450.0   90.0   50.0
-450.0   60.0   33.333333333333336
-500.0   90.0   33.333333333333336
-500.0   90.0   0.0
-450.0   90.0   0.0
-500.0   120.0   0.0
-500.0   90.0   16.666666666666668
-450.0   90.0   0.0
-450.0   120.0   0.0
-500.0   120.0   0.0
-450.0   120.0   16.666666666666668
-500.0   90.0   16.666666666666668
-500.0   120.0   16.666666666666668
-450.0   120.0   16.666666666666668
-500.0   120.0   0.0
-500.0   90.0   16.666666666666668
-450.0   120.0   16.666666666666668
-450.0   90.0   16.666666666666668
-450.0   90.0   0.0
-500.0   90.0   16.666666666666668
-450.0   120.0   16.666666666666668
-450.0   90.0   0.0
-500.0   120.0   0.0
-500.0   90.0   16.666666666666668
-450.0   90.0   16.666666666666668
-500.0   120.0   16.666666666666668
-500.0   90.0   33.333333333333336
-450.0   90.0   16.666666666666668
-450.0   120.0   16.666666666666668
-500.0   120.0   16.666666666666668
-450.0   120.0   33.333333333333336
-500.0   90.0   33.333333333333336
-500.0   120.0   33.333333333333336
-450.0   120.0   33.333333333333336
-500.0   120.0   16.666666666666668
-500.0   90.0   33.333333333333336
-450.0   120.0   33.333333333333336
-450.0   90.0   33.333333333333336
-450.0   90.0   16.666666666666668
-500.0   90.0   33.333333333333336
-450.0   120.0   33.333333333333336
-450.0   90.0   16.666666666666668
-500.0   120.0   16.666666666666668
-500.0   90.0   33.333333333333336
-450.0   90.0   33.333333333333336
-500.0   120.0   33.333333333333336
-500.0   90.0   50.0
-450.0   90.0   33.333333333333336
-450.0   120.0   33.333333333333336
-500.0   120.0   33.333333333333336
-450.0   120.0   50.0
-500.0   90.0   50.0
-500.0   120.0   50.0
-450.0   120.0   50.0
-500.0   120.0   33.333333333333336
-500.0   90.0   50.0
-450.0   120.0   50.0
-450.0   90.0   50.0
-450.0   90.0   33.333333333333336
-500.0   90.0   50.0
-450.0   120.0   50.0
-450.0   90.0   33.333333333333336
-500.0   120.0   33.333333333333336
-500.0   120.0   0.0
-450.0   120.0   0.0
-500.0   150.0   0.0
-500.0   120.0   16.666666666666668
-450.0   120.0   0.0
-450.0   150.0   0.0
-500.0   150.0   0.0
-450.0   150.0   16.666666666666668
-500.0   120.0   16.666666666666668
-500.0   150.0   16.666666666666668
-450.0   150.0   16.666666666666668
-500.0   150.0   0.0
-500.0   120.0   16.666666666666668
-450.0   150.0   16.666666666666668
-450.0   120.0   16.666666666666668
-450.0   120.0   0.0
-500.0   120.0   16.666666666666668
-450.0   150.0   16.666666666666668
-450.0   120.0   0.0
-500.0   150.0   0.0
-500.0   120.0   16.666666666666668
-450.0   120.0   16.666666666666668
-500.0   150.0   16.666666666666668
-500.0   120.0   33.333333333333336
-450.0   120.0   16.666666666666668
-450.0   150.0   16.666666666666668
-500.0   150.0   16.666666666666668
-450.0   150.0   33.333333333333336
-500.0   120.0   33.333333333333336
-500.0   150.0   33.333333333333336
-450.0   150.0   33.333333333333336
-500.0   150.0   16.666666666666668
-500.0   120.0   33.333333333333336
-450.0   150.0   33.333333333333336
-450.0   120.0   33.333333333333336
-450.0   120.0   16.666666666666668
-500.0   120.0   33.333333333333336
-450.0   150.0   33.333333333333336
-450.0   120.0   16.666666666666668
-500.0   150.0   16.666666666666668
-500.0   120.0   33.333333333333336
-450.0   120.0   33.333333333333336
-500.0   150.0   33.333333333333336
-500.0   120.0   50.0
-450.0   120.0   33.333333333333336
-450.0   150.0   33.333333333333336
-500.0   150.0   33.333333333333336
-450.0   150.0   50.0
-500.0   120.0   50.0
-500.0   150.0   50.0
-450.0   150.0   50.0
-500.0   150.0   33.333333333333336
-500.0   120.0   50.0
-450.0   150.0   50.0
-450.0   120.0   50.0
-450.0   120.0   33.333333333333336
-500.0   120.0   50.0
-450.0   150.0   50.0
-450.0   120.0   33.333333333333336
-500.0   150.0   33.333333333333336
-450.0   0.0   0.0
-400.0   0.0   0.0
-450.0   30.0   0.0
-450.0   0.0   16.666666666666668
-400.0   0.0   0.0
-400.0   30.0   0.0
-450.0   30.0   0.0
-400.0   30.0   16.666666666666668
-450.0   0.0   16.666666666666668
-450.0   30.0   16.666666666666668
-400.0   30.0   16.666666666666668
-450.0   30.0   0.0
-450.0   0.0   16.666666666666668
-400.0   30.0   16.666666666666668
-400.0   0.0   16.666666666666668
-400.0   0.0   0.0
-450.0   0.0   16.666666666666668
-400.0   30.0   16.666666666666668
-400.0   0.0   0.0
-450.0   30.0   0.0
-450.0   0.0   16.666666666666668
-400.0   0.0   16.666666666666668
-450.0   30.0   16.666666666666668
[...]
          <PointData>  
             <DataArray type="Float64" NumberOfComponents="3" Name="Strains" format="ascii">   
-0.0005637679211931577   0.0   -0.00036870167682272203
-0.0005637679211931577   0.0   -0.00036870167682272203
-0.0005637679211931577   0.0   -0.00036870167682272203
-0.0005637679211931577   0.0   -0.00036870167682272203
-0.0003588650669587093   6.262719887295477e-05   1.0379399558464253e-05
-0.0003588650669587093   6.262719887295477e-05   1.0379399558464253e-05
-0.0003588650669587093   6.262719887295477e-05   1.0379399558464253e-05
-0.0003588650669587093   6.262719887295477e-05   1.0379399558464253e-05
-0.0003518578865274677   0.0   -0.0003478104037397521
-0.0003518578865274677   0.0   -0.0003478104037397521
-0.0003518578865274677   0.0   -0.0003478104037397521
-0.0003518578865274677   0.0   -0.0003478104037397521
-0.0005901211164790351   7.507351436074631e-05   4.250870896413926e-06
-0.0005901211164790351   7.507351436074631e-05   4.250870896413926e-06
-0.0005901211164790351   7.507351436074631e-05   4.250870896413926e-06
-0.0005901211164790351   7.507351436074631e-05   4.250870896413926e-06
-0.00045781290386031194   1.7409394235808247e-05   -0.00018166434472649485
-0.00045781290386031194   1.7409394235808247e-05   -0.00018166434472649485
-0.00045781290386031194   1.7409394235808247e-05   -0.00018166434472649485
-0.00045781290386031194   1.7409394235808247e-05   -0.00018166434472649485
-0.000590121116479036   0.0   -0.0003928545123562
-0.000590121116479036   0.0   -0.0003928545123562
-0.000590121116479036   0.0   -0.0003928545123562
-0.000590121116479036   0.0   -0.0003928545123562
-0.0003518578865274677   7.507351436074642e-05   4.929497951286174e-05
-0.0003518578865274677   7.507351436074642e-05   4.929497951286174e-05
-0.0003518578865274677   7.507351436074642e-05   4.929497951286174e-05
-0.0003518578865274677   7.507351436074642e-05   4.929497951286174e-05
-0.00035294751756964214   0.0   -0.000356349777707918
-0.00035294751756964214   0.0   -0.000356349777707918
-0.00035294751756964214   0.0   -0.000356349777707918
-0.00035294751756964214   0.0   -0.000356349777707918
-0.0006086733893699477   8.040753181941631e-05   2.16154895342764e-05
-0.0006086733893699477   8.040753181941631e-05   2.16154895342764e-05
-0.0006086733893699477   8.040753181941631e-05   2.16154895342764e-05
-0.0006086733893699477   8.040753181941631e-05   2.16154895342764e-05
-0.00047153431702433833   3.0420612206901625e-05   -0.00017695747927423027
-0.00047153431702433833   3.0420612206901625e-05   -0.00017695747927423027
-0.00047153431702433833   3.0420612206901625e-05   -0.00017695747927423027
-0.00047153431702433833   3.0420612206901625e-05   -0.00017695747927423027
-0.0006086733893699488   0.0   -0.00040459429679956787
-0.0006086733893699488   0.0   -0.00040459429679956787
-0.0006086733893699488   0.0   -0.00040459429679956787
-0.0006086733893699488   0.0   -0.00040459429679956787
-0.00035294751756964214   8.040753181941642e-05   6.98600086259264e-05
-0.00035294751756964214   8.040753181941642e-05   6.98600086259264e-05
-0.00035294751756964214   8.040753181941642e-05   6.98600086259264e-05
-0.00035294751756964214   8.040753181941642e-05   6.98600086259264e-05
-0.000352871718133412   0.0   -0.0003585287083967983
-0.000352871718133412   0.0   -0.0003585287083967983
-0.000352871718133412   0.0   -0.0003585287083967983
-0.000352871718133412   0.0   -0.0003585287083967983
-0.0006485435072581236   9.1530635307554e-05   7.933922562652364e-05
-0.0006485435072581236   9.1530635307554e-05   7.933922562652364e-05
-0.0006485435072581236   9.1530635307554e-05   7.933922562652364e-05
-0.0006485435072581236   9.1530635307554e-05   7.933922562652364e-05
-0.00048077255375167957   3.838799033564126e-05   -0.00016839344323440206
-0.00048077255375167957   3.838799033564126e-05   -0.00016839344323440206
-0.00048077255375167957   3.838799033564126e-05   -0.00016839344323440206
-0.00048077255375167957   3.838799033564126e-05   -0.00016839344323440206
-0.00035886506695870994   0.0   -0.00033112535749894916
-0.00035886506695870994   0.0   -0.00033112535749894916
-0.00035886506695870994   0.0   -0.00033112535749894916
-0.00035886506695870994   0.0   -0.00033112535749894916
-0.00016331653756977062   2.3002481330748202e-05   8.590346947731772e-06
-0.00016331653756977062   2.3002481330748202e-05   8.590346947731772e-06
-0.00016331653756977062   2.3002481330748202e-05   8.590346947731772e-06
-0.00016331653756977062   2.3002481330748202e-05   8.590346947731772e-06
-0.00015717039645542588   0.0   -0.00032819545935956426
-0.00015717039645542588   0.0   -0.00032819545935956426
-0.00015717039645542588   0.0   -0.00032819545935956426
-0.00015717039645542588   0.0   -0.00032819545935956426
-0.0003518578865274677   3.2691573966979796e-05   -2.3331253619682463e-05
-0.0003518578865274677   3.2691573966979796e-05   -2.3331253619682463e-05
-0.0003518578865274677   3.2691573966979796e-05   -2.3331253619682463e-05
-0.0003518578865274677   3.2691573966979796e-05   -2.3331253619682463e-05
-0.0002580177317070675   2.4415817828207028e-06   -0.0001615815163431863
-0.0002580177317070675   2.4415817828207028e-06   -0.0001615815163431863
-0.0002580177317070675   2.4415817828207028e-06   -0.0001615815163431863
-0.0002580177317070675   2.4415817828207028e-06   -0.0001615815163431863
-0.0003518578865274674   0.0   -0.0003478104037397518
-0.0003518578865274674   0.0   -0.0003478104037397518
-0.0003518578865274674   0.0   -0.0003478104037397518
-0.0003518578865274674   0.0   -0.0003478104037397518
-0.00015717039645542588   3.2691573966979796e-05   -3.7163092394945966e-06
-0.00015717039645542588   3.2691573966979796e-05   -3.7163092394945966e-06
-0.00015717039645542588   3.2691573966979796e-05   -3.7163092394945966e-06
-0.00015717039645542588   3.2691573966979796e-05   -3.7163092394945966e-06
-0.00015375832023584385   0.0   -0.00033233532569772
-0.00015375832023584385   0.0   -0.00033233532569772
-0.00015375832023584385   0.0   -0.00033233532569772
-0.00015375832023584385   0.0   -0.00033233532569772
-0.00035294751756964214   4.0024086683663226e-05   -2.4367782151587603e-05
-0.00035294751756964214   4.0024086683663226e-05   -2.4367782151587603e-05
-0.00035294751756964214   4.0024086683663226e-05   -2.4367782151587603e-05
-0.00035294751756964214   4.0024086683663226e-05   -2.4367782151587603e-05
-0.00025280810338165527   1.2895898368360027e-05   -0.00017498989280904898
-0.00025280810338165527   1.2895898368360027e-05   -0.00017498989280904898
-0.00025280810338165527   1.2895898368360027e-05   -0.00017498989280904898
-0.00025280810338165527   1.2895898368360027e-05   -0.00017498989280904898
-0.00035294751756964214   0.0   -0.000356349777707918
-0.00035294751756964214   0.0   -0.000356349777707918
-0.00035294751756964214   0.0   -0.000356349777707918
-0.00035294751756964214   0.0   -0.000356349777707918
-0.00015375832023584385   4.0024086683663226e-05   -3.5333014138962376e-07
-0.00015375832023584385   4.0024086683663226e-05   -3.5333014138962376e-07
-0.00015375832023584385   4.0024086683663226e-05   -3.5333014138962376e-07
-0.00015375832023584385   4.0024086683663226e-05   -3.5333014138962376e-07
-0.00015066743586865052   0.0   -0.00033059894261522376
-0.00015066743586865052   0.0   -0.00033059894261522376
-0.00015066743586865052   0.0   -0.00033059894261522376
-0.00015066743586865052   0.0   -0.00033059894261522376
-0.00035287171813341107   4.6549609635957064e-05   -2.1521571288862394e-05
-0.00035287171813341107   4.6549609635957064e-05   -2.1521571288862394e-05
-0.00035287171813341107   4.6549609635957064e-05   -2.1521571288862394e-05
-0.00035287171813341107   4.6549609635957064e-05   -2.1521571288862394e-05
-0.00025180747671914625   2.145902924391164e-05   -0.00017490762541074448
-0.00025180747671914625   2.145902924391164e-05   -0.00017490762541074448
-0.00025180747671914625   2.145902924391164e-05   -0.00017490762541074448
-0.00025180747671914625   2.145902924391164e-05   -0.00017490762541074448
-0.0001633165375697709   0.0   -0.00031732386870050015
-0.0001633165375697709   0.0   -0.00031732386870050015
-0.0001633165375697709   0.0   -0.00031732386870050015
-0.0001633165375697709   0.0   -0.00031732386870050015
2.152326886069681e-05   -2.9219021021433325e-06   -1.1010665911006395e-05
2.152326886069681e-05   -2.9219021021433325e-06   -1.1010665911006395e-05
2.152326886069681e-05   -2.9219021021433325e-06   -1.1010665911006395e-05
2.152326886069681e-05   -2.9219021021433325e-06   -1.1010665911006395e-05
2.540122291381315e-05   0.0   -0.00032472460773647625
2.540122291381315e-05   0.0   -0.00032472460773647625
2.540122291381315e-05   0.0   -0.00032472460773647625
2.540122291381315e-05   0.0   -0.00032472460773647625
-0.0001571703964554256   5.784752705144847e-06   -2.390942707749909e-05
-0.0001571703964554256   5.784752705144847e-06   -2.390942707749909e-05
-0.0001571703964554256   5.784752705144847e-06   -2.390942707749909e-05
-0.0001571703964554256   5.784752705144847e-06   -2.390942707749909e-05
-6.895765732797859e-05   -6.167282529980975e-06   -0.00016375943781550133
-6.895765732797859e-05   -6.167282529980975e-06   -0.00016375943781550133
-6.895765732797859e-05   -6.167282529980975e-06   -0.00016375943781550133
-6.895765732797859e-05   -6.167282529980975e-06   -0.00016375943781550133
-0.00015717039645542588   0.0   -0.00032819545935956426
-0.00015717039645542588   0.0   -0.00032819545935956426
-0.00015717039645542588   0.0   -0.00032819545935956426
-0.00015717039645542588   0.0   -0.00032819545935956426
2.5401222913813194e-05   5.784752705144847e-06   -2.0438575454412166e-05
2.5401222913813194e-05   5.784752705144847e-06   -2.0438575454412166e-05
2.5401222913813194e-05   5.784752705144847e-06   -2.0438575454412166e-05
2.5401222913813194e-05   5.784752705144847e-06   -2.0438575454412166e-05
2.8449085598982927e-05   0.0   -0.0003242675144640823
2.8449085598982927e-05   0.0   -0.0003242675144640823
2.8449085598982927e-05   0.0   -0.0003242675144640823
2.8449085598982927e-05   0.0   -0.0003242675144640823
-0.00015375832023584334   1.3446352056061895e-05   -2.8656315973008613e-05
-0.00015375832023584334   1.3446352056061895e-05   -2.8656315973008613e-05
-0.00015375832023584334   1.3446352056061895e-05   -2.8656315973008613e-05
-0.00015375832023584334   1.3446352056061895e-05   -2.8656315973008613e-05
-6.436065542822134e-05   3.2732874129011848e-06   -0.00017154858519981576
-6.436065542822134e-05   3.2732874129011848e-06   -0.00017154858519981576
-6.436065542822134e-05   3.2732874129011848e-06   -0.00017154858519981576
-6.436065542822134e-05   3.2732874129011848e-06   -0.00017154858519981576
-0.00015375832023584385   0.0   -0.00033233532569772
-0.00015375832023584385   0.0   -0.00033233532569772
-0.00015375832023584385   0.0   -0.00033233532569772
-0.00015375832023584385   0.0   -0.00033233532569772
2.8449085598982978e-05   1.3446352056062003e-05   -2.058850473937152e-05
2.8449085598982978e-05   1.3446352056062003e-05   -2.058850473937152e-05
2.8449085598982978e-05   1.3446352056062003e-05   -2.058850473937152e-05
2.8449085598982978e-05   1.3446352056062003e-05   -2.058850473937152e-05
3.2582308538571225e-05   0.0   -0.00031720320844787203
3.2582308538571225e-05   0.0   -0.00031720320844787203
3.2582308538571225e-05   0.0   -0.00031720320844787203
3.2582308538571225e-05   0.0   -0.00031720320844787203
-0.00015066743586865015   2.2326223612252334e-05   -2.5182701936520794e-05
-0.00015066743586865015   2.2326223612252334e-05   -2.5182701936520794e-05
-0.00015066743586865015   2.2326223612252334e-05   -2.5182701936520794e-05
-0.00015066743586865015   2.2326223612252334e-05   -2.5182701936520794e-05
-6.0588005848636174e-05   1.2610097708206194e-05   -0.00016948540976078328
-6.0588005848636174e-05   1.2610097708206194e-05   -0.00016948540976078328
-6.0588005848636174e-05   1.2610097708206194e-05   -0.00016948540976078328
-6.0588005848636174e-05   1.2610097708206194e-05   -0.00016948540976078328
2.1523268860696846e-05   0.0   -0.0003190770099617862
2.1523268860696846e-05   0.0   -0.0003190770099617862
2.1523268860696846e-05   0.0   -0.0003190770099617862
2.1523268860696846e-05   0.0   -0.0003190770099617862
0.00022208127640899173   -2.6047352537757196e-05   -4.420755706154868e-07
0.00022208127640899173   -2.6047352537757196e-05   -4.420755706154868e-07
0.00022208127640899173   -2.6047352537757196e-05   -4.420755706154868e-07
0.00022208127640899173   -2.6047352537757196e-05   -4.420755706154868e-07
0.00022235051585567543   0.0   -0.0003365228225056671
0.00022235051585567543   0.0   -0.0003365228225056671
0.00022235051585567543   0.0   -0.0003365228225056671
0.00022235051585567543   0.0   -0.0003365228225056671
2.540122291381324e-05   -1.9663691281982887e-05   3.524213833292919e-06
2.540122291381324e-05   -1.9663691281982887e-05   3.524213833292919e-06
2.540122291381324e-05   -1.9663691281982887e-05   3.524213833292919e-06
2.540122291381324e-05   -1.9663691281982887e-05   3.524213833292919e-06
0.00012193689235818614   -1.4538177119900807e-05   -0.00016044387707124438
0.00012193689235818614   -1.4538177119900807e-05   -0.00016044387707124438
0.00012193689235818614   -1.4538177119900807e-05   -0.00016044387707124438
0.00012193689235818614   -1.4538177119900807e-05   -0.00016044387707124438
2.540122291381324e-05   0.0   -0.00032472460773647733
2.540122291381324e-05   0.0   -0.00032472460773647733
2.540122291381324e-05   0.0   -0.00032472460773647733
2.540122291381324e-05   0.0   -0.00032472460773647733
0.00022235051585567543   -1.9663691281982887e-05   -8.274000935896823e-06
0.00022235051585567543   -1.9663691281982887e-05   -8.274000935896823e-06
0.00022235051585567543   -1.9663691281982887e-05   -8.274000935896823e-06
0.00022235051585567543   -1.9663691281982887e-05   -8.274000935896823e-06
0.00022128993079839648   0.0   -0.0003317165034258159
0.00022128993079839648   0.0   -0.0003317165034258159
0.00022128993079839648   0.0   -0.0003317165034258159
0.00022128993079839648   0.0   -0.0003317165034258159
2.8449085598982978e-05   -1.241498160288847e-05   -2.8661057983937234e-06
2.8449085598982978e-05   -1.241498160288847e-05   -2.8661057983937234e-06
2.8449085598982978e-05   -1.241498160288847e-05   -2.8661057983937234e-06
2.8449085598982978e-05   -1.241498160288847e-05   -2.8661057983937234e-06
0.00012334557685610487   -5.826579741115474e-06   -0.00016497996567732716
0.00012334557685610487   -5.826579741115474e-06   -0.00016497996567732716
0.00012334557685610487   -5.826579741115474e-06   -0.00016497996567732716
0.00012334557685610487   -5.826579741115474e-06   -0.00016497996567732716
2.844908559898295e-05   0.0   -0.0003242675144640826
2.844908559898295e-05   0.0   -0.0003242675144640826
2.844908559898295e-05   0.0   -0.0003242675144640826
2.844908559898295e-05   0.0   -0.0003242675144640826
0.00022128993079839648   -1.241498160288847e-05   -1.0315094760126773e-05
0.00022128993079839648   -1.241498160288847e-05   -1.0315094760126773e-05
0.00022128993079839648   -1.241498160288847e-05   -1.0315094760126773e-05
0.00022128993079839648   -1.241498160288847e-05   -1.0315094760126773e-05
0.00022547159853414551   0.0   -0.00031880384961042286
0.00022547159853414551   0.0   -0.00031880384961042286
0.00022547159853414551   0.0   -0.00031880384961042286
0.00022547159853414551   0.0   -0.00031880384961042286
3.2582308538571286e-05   -2.667735270917102e-06   4.278941544751089e-06
3.2582308538571286e-05   -2.667735270917102e-06   4.278941544751089e-06
3.2582308538571286e-05   -2.667735270917102e-06   4.278941544751089e-06
3.2582308538571286e-05   -2.667735270917102e-06   4.278941544751089e-06
0.00012696034206656417   4.553054044716695e-06   -0.00015735025459128385
0.00012696034206656417   4.553054044716695e-06   -0.00015735025459128385
0.00012696034206656417   4.553054044716695e-06   -0.00015735025459128385
0.00012696034206656417   4.553054044716695e-06   -0.00015735025459128385
0.00022208127640899173   0.0   -0.0003347054214844405
0.00022208127640899173   0.0   -0.0003347054214844405
0.00022208127640899173   0.0   -0.0003347054214844405
0.00022208127640899173   0.0   -0.0003347054214844405
0.0005007157892869071   -6.594538320619083e-05   9.011820338837334e-05
0.0005007157892869071   -6.594538320619083e-05   9.011820338837334e-05
0.0005007157892869071   -6.594538320619083e-05   9.011820338837334e-05
0.0005007157892869071   -6.594538320619083e-05   9.011820338837334e-05
0.0004700897097621496   0.0   -0.0003702280606661093
0.0004700897097621496   0.0   -0.0003702280606661093
0.0004700897097621496   0.0   -0.0003702280606661093
0.0004700897097621496   0.0   -0.0003702280606661093
0.00022235051585567543   -5.617539693407035e-05   7.63758340051231e-05
0.00022235051585567543   -5.617539693407035e-05   7.63758340051231e-05
0.00022235051585567543   -5.617539693407035e-05   7.63758340051231e-05
0.00022235051585567543   -5.617539693407035e-05   7.63758340051231e-05
0.00034608549308557063   -2.960219931805733e-05   -0.00014579304661430987
0.00034608549308557063   -2.960219931805733e-05   -0.00014579304661430987
0.00034608549308557063   -2.960219931805733e-05   -0.00014579304661430987
0.00034608549308557063   -2.960219931805733e-05   -0.00014579304661430987
0.00022235051585567524   0.0   -0.00033652282250566683
0.00022235051585567524   0.0   -0.00033652282250566683
0.00022235051585567524   0.0   -0.00033652282250566683
0.00022235051585567524   0.0   -0.00033652282250566683
0.00047008970976214796   -5.617539693407003e-05   4.267059584468075e-05
0.00047008970976214796   -5.617539693407003e-05   4.267059584468075e-05
0.00047008970976214796   -5.617539693407003e-05   4.267059584468075e-05
0.00047008970976214796   -5.617539693407003e-05   4.267059584468075e-05
0.00045591788640505235   0.0   -0.0003625296295977893
0.00045591788640505235   0.0   -0.0003625296295977893
0.00045591788640505235   0.0   -0.0003625296295977893
0.00045591788640505235   0.0   -0.0003625296295977893
0.00022128993079839648   -5.1355210286622315e-05   5.93300892519438e-05
0.00022128993079839648   -5.1355210286622315e-05   5.93300892519438e-05
0.00022128993079839648   -5.1355210286622315e-05   5.93300892519438e-05
0.00022128993079839648   -5.1355210286622315e-05   5.93300892519438e-05
0.0003391342011303637   -2.1672339243435188e-05   -0.0001548867505939138
0.0003391342011303637   -2.1672339243435188e-05   -0.0001548867505939138
0.0003391342011303637   -2.1672339243435188e-05   -0.0001548867505939138
0.0003391342011303637   -2.1672339243435188e-05   -0.0001548867505939138
0.00022128993079839648   0.0   -0.0003317165034258159
0.00022128993079839648   0.0   -0.0003317165034258159
0.00022128993079839648   0.0   -0.0003317165034258159
0.00022128993079839648   0.0   -0.0003317165034258159
0.0004559178864050508   -5.13552102866221e-05   2.851696307997029e-05
0.0004559178864050508   -5.13552102866221e-05   2.851696307997029e-05
0.0004559178864050508   -5.13552102866221e-05   2.851696307997029e-05
0.0004559178864050508   -5.13552102866221e-05   2.851696307997029e-05
0.0004348957163071388   0.0   -0.0003427993602470854
0.0004348957163071388   0.0   -0.0003427993602470854
0.0004348957163071388   0.0   -0.0003427993602470854
0.0004348957163071388   0.0   -0.0003427993602470854
0.00022547159853414551   -3.9992517727771874e-05   3.0236346677900525e-05
0.00022547159853414551   -3.9992517727771874e-05   3.0236346677900525e-05
0.00022547159853414551   -3.9992517727771874e-05   3.0236346677900525e-05
0.00022547159853414551   -3.9992517727771874e-05   3.0236346677900525e-05
0.000328092823552768   -9.235714017725115e-06   -0.0001592531105791649
0.000328092823552768   -9.235714017725115e-06   -0.0001592531105791649
0.000328092823552768   -9.235714017725115e-06   -0.0001592531105791649
0.000328092823552768   -9.235714017725115e-06   -0.0001592531105791649
-0.0004901113460948898   6.262719887295467e-05   -0.00032071166177613584
-0.0004901113460948898   6.262719887295467e-05   -0.00032071166177613584