<?xml version="1.0"?> 
<VTKFile type="UnstructuredGrid"> 
   <UnstructuredGrid> 
      <Piece NumberOfPoints="6000"  NumberOfCells="1500">  
          <Points>  
             <DataArray type="Float64" NumberOfComponents="3" format="ascii">   
-500.0   0.0   0.0
-450.0   0.0   0.0
-500.0   30.0   0.0
-500.0   0.0   16.666666666666668
-450.0   0.0   0.0
-450.0   30.0   0.0
-500.0   30.0   0.0
-450.0   30.0   16.666666666666668
-500.0   0.0   16.666666666666668
-500.0   30.0   16.666666666666668
-450.0   30.0   16.666666666666668
-500.0   30.0   0.0
-500.0   0.0   16.666666666666668
-450.0   30.0   16.666666666666668
-450.0   0.0   16.666666666666668
-450.0   0.0   0.0
-500.0   0.0   16.666666666666668
-450.0   30.0   16.666666666666668
-450.0   0.0   0.0
-500.0   30.0   0.0
-500.0   0.0   16.666666666666668
-450.0   0.0   16.666666666666668
-500.0   30.0   16.666666666666668
-500.0   0.0   33.333333333333336
-450.0   0.0   16.666666666666668
-450.0   30.0   16.666666666666668
-500.0   30.0   16.666666666666668
-450.0   30.0   33.333333333333336
-500.0   0.0   33.333333333333336
-500.0   30.0   33.333333333333336
-450.0   30.0   33.333333333333336
-500.0   30.0   16.666666666666668
-500.0   0.0   33.333333333333336
-450.0   30.0   33.333333333333336
-450.0   0.0   33.333333333333336
-450.0   0.0   16.666666666666668
-500.0   0.0   33.333333333333336
-450.0   30.0   33.333333333333336
-450.0   0.0   16.666666666666668
-500.0   30.0   16.666666666666668
-500.0   0.0   33.333333333333336
-450.0   0.0   33.333333333333336
-500.0   30.0   33.333333333333336
-500.0   0.0   50.0
-450.0   0.0   33.333333333333336
-450.0   30.0   33.333333333333336
-500.0   30.0   33.333333333333336
-450.0   30.0   50.0
-500.0   0.0   50.0
-500.0   30.0   50.0
-450.0   30.0   50.0
-500.0   30.0   33.333333333333336
-500.0   0.0   50.0
-450.0   30.0   50.0
-450.0   0.0   50.0
-450.0   0.0   33.333333333333336
-500.0   0.0   50.0
-450.0   30.0   50.0
-450.0   0.0   33.333333333333336
-500.0   30.0   33.333333333333336
-500.0   30.0   0.0
-450.0   30.0   0.0
-500.0   60.0   0.0
-500.0   30.0   16.666666666666668
-450.0   30.0   0.0
-450.0   60.0   0.0
-500.0   60.0   0.0
-450.0   60.0   16.666666666666668
-500.0   30.0   16.666666666666668
-500.0   60.0   16.666666666666668
-450.0   60.0   16.666666666666668
-500.0   60.0   0.0
-500.0   30.0   16.666666666666668
-450.0   60.0   16.666666666666668
-450.0   30.0   16.666666666666668
-450.0   30.0   0.0
-500.0   30.0   16.666666666666668
-450.0   60.0   16.666666666666668
-450.0   30.0   0.0
-500.0   60.0   0.0
-500.0   30.0   16.666666666666668
-450.0   30.0   16.666666666666668
-500.0   60.0   16.666666666666668
-500.0   30.0   33.333333333333336
-450.0   30.0   16.666666666666668
-450.0   60.0   16.666666666666668
-500.0   60.0   16.666666666666668
-450.0   60.0   33.333333333333336
-500.0   30.0   33.333333333333336
-500.0   60.0   33.333333333333336
-450.0   60.0   33.333333333333336
-500.0   60.0   16.666666666666668
-500.0   30.0   33.333333333333336
-450.0   60.0   33.333333333333336
-450.0   30.0   33.333333333333336
-450.0   30.0   16.666666666666668
-500.0   30.0   33.333333333333336
-450.0   60.0   33.333333333333336
-450.0   30.0   16.666666666666668
-500.0   60.0   16.666666666666668
-500.0   30.0   33.333333333333336
-450.0   30.0   33.333333333333336
-500.0   60.0   33.333333333333336
-500.0   30.0   50.0
-450.0   30.0   33.333333333333336
-450.0   60.0   33.333333333333336
-500.0   60.0   33.333333333333336
-450.0   60.0   50.0
-500.0   30.0   50.0
-500.0   60.0   50.0
-450.0   60.0   50.0
-500.0   60.0   33.333333333333336
-500.0   30.0   50.0
-450.0   60.0   50.0
-450.0   30.0   50.0
-450.0   30.0   33.333333333333336
-500.0   30.0   50.0
-450.0   60.0   50.0
-450.0   30.0   33.333333333333336
-500.0   60.0   33.333333333333336
-500.0   60.0   0.0
-450.0   60.0   0.0
-500.0   90.0   0.0
-500.0   60.0   16.666666666666668
-450.0   60.0   0.0
-450.0   90.0   0.0
-500.0   90.0   0.0
-450.0   90.0   16.666666666666668
-500.0   60.0   16.666666666666668
-500.0   90.0   16.666666666666668
-450.0   90.0   16.666666666666668
-500.0   90.0   0.0
-500.0   60.0   16.666666666666668
-450.0   90.0   16.666666666666668
-450.0   60.0   16.666666666666668
-450.0   60.0   0.0
-500.0   60.0   16.666666666666668
-450.0   90.0   16.666666666666668
-450.0   60.0   0.0
-500.0   90.0   0.0
-500.0   60.0   16.666666666666668
-450.0   60.0   16.666666666666668
-500.0   90.0   16.666666666666668
-500.0   60.0   33.333333333333336
-450.0   60.0   16.666666666666668
-450.0   90.0   16.666666666666668
-500.0   90.0   16.666666666666668
-450.0   90.0   33.333333333333336
-500.0   60.0   33.333333333333336
-500.0   90.0   33.333333333333336
-450.0   90.0   33.333333333333336
-500.0   90.0   16.666666666666668
-500.0   60.0   33.333333333333336
-450.0   90.0   33.333333333333336
-450.0   60.0   33.333333333333336
-450.0   60.0   16.666666666666668
-500.0   60.0   33.333333333333336
-450.0   90.0   33.333333333333336
-450.0   60.0   16.666666666666668
-500.0   90.0   16.666666666666668
-500.0   60.0   33.333333333333336
-450.0   60.0   33.333333333333336
-500.0   90.0   33.333333333333336
-500.0   60.0   50.0
-450.0   60.0   33.333333333333336
-450.0   90.0   33.333333333333336
-500.0   90.0   33.333333333333336
-450.0   90.0   50.0
-500.0   60.0   50.0
-500.0   90.0   50.0
-450.0   90.0   50.0
-500.0   90.0   33.333333333333336
-500.0   60.0   50.0
-450.0   90.0   50.0
-450.0   60.0   50.0
-450.0   60.0   33.333333333333336
-500.0   60.0   50.0
-450.0   90.0   50.0
-450.0   60.0   33.333333333333336
-500.0   90.0   33.333333333333336
-500.0   90.0   0.0
-450.0   90.0   0.0
-500.0   120.0   0.0
-500.0   90.0   16.666666666666668
-450.0   90.0   0.0
-450.0   120.0   0.0
-500.0   120.0   0.0
-450.0   120.0   16.666666666666668
-500.0   90.0   16.666666666666668
-500.0   120.0   16.666666666666668
-450.0   120.0   16.666666666666668
-500.0   120.0   0.0
-500.0   90.0   16.666666666666668
-450.0   120.0   16.666666666666668
-450.0   90.0   16.666666666666668
-450.0   90.0   0.0
-500.0   90.0   16.666666666666668
-450.0   120.0   16.666666666666668
-450.0   90.0   0.0
-500.0   120.0   0.0
-500.0   90.0   16.666666666666668
-450.0   90.0   16.666666666666668
-500.0   120.0   16.666666666666668
-500.0   90.0   33.333333333333336
-450.0   90.0   16.666666666666668
-450.0   120.0   16.666666666666668
-500.0   120.0   16.666666666666668
-450.0   120.0   33.333333333333336
-500.0   90.0   33.333333333333336
-500.0   120.0   33.333333333333336
-450.0   120.0   33.333333333333336
-500.0   120.0   16.666666666666668
-500.0   90.0   33.333333333333336
-450.0   120.0   33.333333333333336
-450.0   90.0   33.333333333333336
-450.0   90.0   16.666666666666668
-500.0   90.0   33.333333333333336
-450.0   120.0   33.333333333333336
-450.0   90.0   16.666666666666668
-500.0   120.0   16.666666666666668
-500.0   90.0   33.333333333333336
-450.0   90.0   33.333333333333336
-500.0   120.0   33.333333333333336
-500.0   90.0   50.0
-450.0   90.0   33.333333333333336
-450.0   120.0   33.333333333333336
-500.0   120.0   33.333333333333336
-450.0   120.0   50.0
-500.0   90.0   50.0
-500.0   120.0   50.0
-450.0   120.0   50.0
-500.0   120.0   33.333333333333336
-500.0   90.0   50.0
-450.0   120.0   50.0
-450.0   90.0   50.0
-450.0   90.0   33.333333333333336
-500.0   90.0   50.0
-450.0   120.0   50.0
-450.0   90.0   33.333333333333336
-500.0   120.0   33.333333333333336
-500.0   120.0   0.0
-450.0   120.0   0.0
-500.0   150.0   0.0
-500.0   120.0   16.666666666666668
-450.0   120.0   0.0
-450.0   150.0   0.0
-500.0   150.0   0.0
-450.0   150.0   16.666666666666668
-500.0   120.0   16.666666666666668
-500.0   150.0   16.666666666666668
-450.0   150.0   16.666666666666668
-500.0   150.0   0.0
-500.0   120.0   16.666666666666668
-450.0   150.0   16.666666666666668
-450.0   120.0   16.666666666666668
-450.0   120.0   0.0
-500.0   120.0   16.666666666666668
-450.0   150.0   16.666666666666668
-450.0   120.0   0.0
-500.0   150.0   0.0
-500.0   120.0   16.666666666666668
-450.0   120.0   16.666666666666668
-500.0   150.0   16.666666666666668
-500.0   120.0   33.333333333333336
-450.0   120.0   16.666666666666668
-450.0   150.0   16.666666666666668
-500.0   150.0   16.666666666666668
-450.0   150.0   33.333333333333336
-500.0   120.0   33.333333333333336
-500.0   150.0   33.333333333333336
-450.0   150.0   33.333333333333336
-500.0   150.0   16.666666666666668
-500.0   120.0   33.333333333333336
-450.0   150.0   33.333333333333336
-450.0   120.0   33.333333333333336
-450.0   120.0   16.666666666666668
-500.0   120.0   33.333333333333336
-450.0   150.0   33.333333333333336
-450.0   120.0   16.666666666666668
-500.0   150.0   16.666666666666668
-500.0   120.0   33.333333333333336
-450.0   120.0   33.333333333333336
-500.0   150.0   33.333333333333336
-500.0   120.0   50.0
-450.0   120.0   33.333333333333336
-450.0   150.0   33.333333333333336
-500.0   150.0   33.333333333333336
-450.0   150.0   50.0
-500.0   120.0   50.0
-500.0   150.0   50.0
-450.0   150.0   50.0
-500.0   150.0   33.333333333333336
-500.0   120.0   50.0
-450.0   150.0   50.0
-450.0   120.0   50.0
-450.0   120.0   33.333333333333336
-500.0   120.0   50.0
-450.0   150.0   50.0
-450.0   120.0   33.333333333333336
-500.0   150.0   33.333333333333336
-450.0   0.0   0.0
-400.0   0.0   0.0
-450.0   30.0   0.0
-450.0   0.0   16.666666666666668
-400.0   0.0   0.0
-400.0   30.0   0.0
-450.0   30.0   0.0
-400.0   30.0   16.666666666666668
-450.0   0.0   16.666666666666668
-450.0   30.0   16.666666666666668
-400.0   30.0   16.666666666666668
-450.0   30.0   0.0
-450.0   0.0   16.666666666666668
-400.0   30.0   16.666666666666668
-400.0   0.0   16.666666666666668
-400.0   0.0   0.0
-450.0   0.0   16.666666666666668
-400.0   30.0   16.666666666666668
-400.0   0.0   0.0
-450.0   30.0   0.0
-450.0   0.0   16.666666666666668
-400.0   0.0   16.666666666666668
-450.0   30.0   16.666666666666668
[...]
          <PointData>  
             <DataArray type="Float64" NumberOfComponents="3" Name="Strains" format="ascii">   
-0.00043859602292464826   0.0   -0.000286897977688704
-0.00043859602292464826   0.0   -0.000286897977688704
-0.00043859602292464826   0.0   -0.000286897977688704
-0.00043859602292464826   0.0   -0.000286897977688704
-0.00027918145377644224   4.871453087866757e-05   8.02168941883922e-06
-0.00027918145377644224   4.871453087866757e-05   8.02168941883922e-06
-0.00027918145377644224   4.871453087866757e-05   8.02168941883922e-06
-0.00027918145377644224   4.871453087866757e-05   8.02168941883922e-06
-0.00027372619278368936   0.0   -0.0002706495298864339
-0.00027372619278368936   0.0   -0.0002706495298864339
-0.00027372619278368936   0.0   -0.0002706495298864339
-0.00027372619278368936   0.0   -0.0002706495298864339
-0.00045909316632131305   5.8399561995482806e-05   3.2556888123170483e-06
-0.00045909316632131305   5.8399561995482806e-05   3.2556888123170483e-06
-0.00045909316632131305   5.8399561995482806e-05   3.2556888123170483e-06
-0.00045909316632131305   5.8399561995482806e-05   3.2556888123170483e-06
-0.0003561611078541682   1.3540373168558428e-05   -0.00014138222867010288
-0.0003561611078541682   1.3540373168558428e-05   -0.00014138222867010288
-0.0003561611078541682   1.3540373168558428e-05   -0.00014138222867010288
-0.0003561611078541682   1.3540373168558428e-05   -0.00014138222867010288
-0.0004590931663213138   0.0   -0.0003056892670837237
-0.0004590931663213138   0.0   -0.0003056892670837237
-0.0004590931663213138   0.0   -0.0003056892670837237
-0.0004590931663213138   0.0   -0.0003056892670837237
-0.00027372619278368936   5.839956199548297e-05   3.829542600960686e-05
-0.00027372619278368936   5.839956199548297e-05   3.829542600960686e-05
-0.00027372619278368936   5.839956199548297e-05   3.829542600960686e-05
-0.00027372619278368936   5.839956199548297e-05   3.829542600960686e-05
-0.0002745695650677252   0.0   -0.0002772933018463136
-0.0002745695650677252   0.0   -0.0002772933018463136
-0.0002745695650677252   0.0   -0.0002772933018463136
-0.0002745695650677252   0.0   -0.0002772933018463136
-0.00047352089495098344   6.254988651664564e-05   1.6762316049130687e-05
-0.00047352089495098344   6.254988651664564e-05   1.6762316049130687e-05
-0.00047352089495098344   6.254988651664564e-05   1.6762316049130687e-05
-0.00047352089495098344   6.254988651664564e-05   1.6762316049130687e-05
-0.0003668313656945189   2.366330436450839e-05   -0.00013772161675369439
-0.0003668313656945189   2.366330436450839e-05   -0.00013772161675369439
-0.0003668313656945189   2.366330436450839e-05   -0.00013772161675369439
-0.0003668313656945189   2.366330436450839e-05   -0.00013772161675369439
-0.00047352089495098426   0.0   -0.000314823233756301
-0.00047352089495098426   0.0   -0.000314823233756301
-0.00047352089495098426   0.0   -0.000314823233756301
-0.00047352089495098426   0.0   -0.000314823233756301
-0.0002745695650677252   6.254988651664575e-05   5.429224795911819e-05
-0.0002745695650677252   6.254988651664575e-05   5.429224795911819e-05
-0.0002745695650677252   6.254988651664575e-05   5.429224795911819e-05
-0.0002745695650677252   6.254988651664575e-05   5.429224795911819e-05
-0.0002745057509992692   0.0   -0.0002789892247168225
-0.0002745057509992692   0.0   -0.0002789892247168225
-0.0002745057509992692   0.0   -0.0002789892247168225
-0.0002745057509992692   0.0   -0.0002789892247168225
-0.0005045313245919208   7.120579607659204e-05   6.166325362497616e-05
-0.0005045313245919208   7.120579607659204e-05   6.166325362497616e-05
-0.0005045313245919208   7.120579607659204e-05   6.166325362497616e-05
-0.0005045313245919208   7.120579607659204e-05   6.166325362497616e-05
-0.0003740133229751261   2.9861674199565375e-05   -0.00013106027594346557
-0.0003740133229751261   2.9861674199565375e-05   -0.00013106027594346557
-0.0003740133229751261   2.9861674199565375e-05   -0.00013106027594346557
-0.0003740133229751261   2.9861674199565375e-05   -0.00013106027594346557
-0.00027918145377644273   0.0   -0.0002576692591615035
-0.00027918145377644273   0.0   -0.0002576692591615035
-0.00027918145377644273   0.0   -0.0002576692591615035
-0.00027918145377644273   0.0   -0.0002576692591615035
-0.00012705815636901812   1.7890982143389897e-05   6.6041591369046424e-06
-0.00012705815636901812   1.7890982143389897e-05   6.6041591369046424e-06
-0.00012705815636901812   1.7890982143389897e-05   6.6041591369046424e-06
-0.00012705815636901812   1.7890982143389897e-05   6.6041591369046424e-06
-0.00012227234202767258   0.0   -0.00025539180386797197
-0.00012227234202767258   0.0   -0.00025539180386797197
-0.00012227234202767258   0.0   -0.00025539180386797197
-0.00012227234202767258   0.0   -0.00025539180386797197
-0.00027372619278368936   2.5429543364103213e-05   -1.8226445293072636e-05
-0.00027372619278368936   2.5429543364103213e-05   -1.8226445293072636e-05
-0.00027372619278368936   2.5429543364103213e-05   -1.8226445293072636e-05
-0.00027372619278368936   2.5429543364103213e-05   -1.8226445293072636e-05
-0.00020072689790205731   1.897879411276275e-06   -0.00012577293839076227
-0.00020072689790205731   1.897879411276275e-06   -0.00012577293839076227
-0.00020072689790205731   1.897879411276275e-06   -0.00012577293839076227
-0.00020072689790205731   1.897879411276275e-06   -0.00012577293839076227
-0.00027372619278368915   0.0   -0.00027064952988643364
-0.00027372619278368915   0.0   -0.00027064952988643364
-0.00027372619278368915   0.0   -0.00027064952988643364
-0.00027372619278368915   0.0   -0.00027064952988643364
-0.00012227234202767258   2.5429543364103213e-05   -2.9687192746106594e-06
-0.00012227234202767258   2.5429543364103213e-05   -2.9687192746106594e-06
-0.00012227234202767258   2.5429543364103213e-05   -2.9687192746106594e-06
-0.00012227234202767258   2.5429543364103213e-05   -2.9687192746106594e-06
-0.00011961367439783132   0.0   -0.00025861242895247616
-0.00011961367439783132   0.0   -0.00025861242895247616
-0.00011961367439783132   0.0   -0.00025861242895247616
-0.00011961367439783132   0.0   -0.00025861242895247616
-0.0002745695650677252   3.113478815639566e-05   -1.9033484063157185e-05
-0.0002745695650677252   3.113478815639566e-05   -1.9033484063157185e-05
-0.0002745695650677252   3.113478815639566e-05   -1.9033484063157185e-05
-0.0002745695650677252   3.113478815639566e-05   -1.9033484063157185e-05
-0.00019666993359075994   1.0030917444964763e-05   -0.00013620388076457287
-0.00019666993359075994   1.0030917444964763e-05   -0.00013620388076457287
-0.00019666993359075994   1.0030917444964763e-05   -0.00013620388076457287
-0.00019666993359075994   1.0030917444964763e-05   -0.00013620388076457287
-0.0002745695650677252   0.0   -0.0002772933018463136
-0.0002745695650677252   0.0   -0.0002772933018463136
-0.0002745695650677252   0.0   -0.0002772933018463136
-0.0002745695650677252   0.0   -0.0002772933018463136
-0.00011961367439783132   3.113478815639566e-05   -3.526111693197829e-07
-0.00011961367439783132   3.113478815639566e-05   -3.526111693197829e-07
-0.00011961367439783132   3.113478815639566e-05   -3.526111693197829e-07
-0.00011961367439783132   3.113478815639566e-05   -3.526111693197829e-07
-0.00011720454679101393   0.0   -0.0002572620127229903
-0.00011720454679101393   0.0   -0.0002572620127229903
-0.00011720454679101393   0.0   -0.0002572620127229903
-0.00011720454679101393   0.0   -0.0002572620127229903
-0.0002745057509992685   3.6212019989719933e-05   -1.6820551036396923e-05
-0.0002745057509992685   3.6212019989719933e-05   -1.6820551036396923e-05
-0.0002745057509992685   3.6212019989719933e-05   -1.6820551036396923e-05
-0.0002745057509992685   3.6212019989719933e-05   -1.6820551036396923e-05
-0.00019588705592936948   1.669274093610252e-05   -0.0001361401420540592
-0.00019588705592936948   1.669274093610252e-05   -0.0001361401420540592
-0.00019588705592936948   1.669274093610252e-05   -0.0001361401420540592
-0.00019588705592936948   1.669274093610252e-05   -0.0001361401420540592
-0.00012705815636901834   0.0   -0.0002469346698754695
-0.00012705815636901834   0.0   -0.0002469346698754695
-0.00012705815636901834   0.0   -0.0002469346698754695
-0.00012705815636901834   0.0   -0.0002469346698754695
1.6730816929054376e-05   -2.2737272062476493e-06   -8.650617369096668e-06
1.6730816929054376e-05   -2.2737272062476493e-06   -8.650617369096668e-06
1.6730816929054376e-05   -2.2737272062476493e-06   -8.650617369096668e-06
1.6730816929054376e-05   -2.2737272062476493e-06   -8.650617369096668e-06
1.9752489028703064e-05   0.0   -0.00025269166478331383
1.9752489028703064e-05   0.0   -0.00025269166478331383
1.9752489028703064e-05   0.0   -0.00025269166478331383
1.9752489028703064e-05   0.0   -0.00025269166478331383
-0.00012227234202767236   4.500231807762114e-06   -1.8683752107345747e-05
-0.00012227234202767236   4.500231807762114e-06   -1.8683752107345747e-05
-0.00012227234202767236   4.500231807762114e-06   -1.8683752107345747e-05
-0.00012227234202767236   4.500231807762114e-06   -1.8683752107345747e-05
-5.3652833670157404e-05   -4.7974957565376166e-06   -0.00012747096283129036
-5.3652833670157404e-05   -4.7974957565376166e-06   -0.00012747096283129036
-5.3652833670157404e-05   -4.7974957565376166e-06   -0.00012747096283129036
-5.3652833670157404e-05   -4.7974957565376166e-06   -0.00012747096283129036
-0.00012227234202767258   0.0   -0.00025539180386797197
-0.00012227234202767258   0.0   -0.00025539180386797197
-0.00012227234202767258   0.0   -0.00025539180386797197
-0.00012227234202767258   0.0   -0.00025539180386797197
1.9752489028703098e-05   4.500231807762114e-06   -1.5983613022688485e-05
1.9752489028703098e-05   4.500231807762114e-06   -1.5983613022688485e-05
1.9752489028703098e-05   4.500231807762114e-06   -1.5983613022688485e-05
1.9752489028703098e-05   4.500231807762114e-06   -1.5983613022688485e-05
2.2127944825805088e-05   0.0   -0.0002523356355128678
2.2127944825805088e-05   0.0   -0.0002523356355128678
2.2127944825805088e-05   0.0   -0.0002523356355128678
2.2127944825805088e-05   0.0   -0.0002523356355128678
-0.00011961367439783091   1.0461322399346444e-05   -2.2376396913082077e-05
-0.00011961367439783091   1.0461322399346444e-05   -2.2376396913082077e-05
-0.00011961367439783091   1.0461322399346444e-05   -2.2376396913082077e-05
-0.00011961367439783091   1.0461322399346444e-05   -2.2376396913082077e-05
-5.0072198600933636e-05   2.5468069625863784e-06   -0.0001335301473125217
-5.0072198600933636e-05   2.5468069625863784e-06   -0.0001335301473125217
-5.0072198600933636e-05   2.5468069625863784e-06   -0.0001335301473125217
-5.0072198600933636e-05   2.5468069625863784e-06   -0.0001335301473125217
-0.00011961367439783132   0.0   -0.00025861242895247616
-0.00011961367439783132   0.0   -0.00025861242895247616
-0.00011961367439783132   0.0   -0.00025861242895247616
-0.00011961367439783132   0.0   -0.00025861242895247616
2.2127944825805125e-05   1.0461322399346498e-05   -1.609960347347424e-05
2.2127944825805125e-05   1.0461322399346498e-05   -1.609960347347424e-05
2.2127944825805125e-05   1.0461322399346498e-05   -1.609960347347424e-05
2.2127944825805125e-05   1.0461322399346498e-05   -1.609960347347424e-05
2.5347838921780764e-05   0.0   -0.0002468399943079142
2.5347838921780764e-05   0.0   -0.0002468399943079142
2.5347838921780764e-05   0.0   -0.0002468399943079142
2.5347838921780764e-05   0.0   -0.0002468399943079142
-0.00011720454679101362   1.737003069179308e-05   -1.9674703201665803e-05
-0.00011720454679101362   1.737003069179308e-05   -1.9674703201665803e-05
-0.00011720454679101362   1.737003069179308e-05   -1.9674703201665803e-05
-0.00011720454679101362   1.737003069179308e-05   -1.9674703201665803e-05
-4.713291773802518e-05   9.810362203801283e-06   -0.00013192495053051832
-4.713291773802518e-05   9.810362203801283e-06   -0.00013192495053051832
-4.713291773802518e-05   9.810362203801283e-06   -0.00013192495053051832
-4.713291773802518e-05   9.810362203801283e-06   -0.00013192495053051832
1.6730816929054403e-05   0.0   -0.0002482989061992181
1.6730816929054403e-05   0.0   -0.0002482989061992181
1.6730816929054403e-05   0.0   -0.0002482989061992181
1.6730816929054403e-05   0.0   -0.0002482989061992181
0.0001727508128549291   -2.0261529566612067e-05   -4.224973960606764e-07
0.0001727508128549291   -2.0261529566612067e-05   -4.224973960606764e-07
0.0001727508128549291   -2.0261529566612067e-05   -4.224973960606764e-07
0.0001727508128549291   -2.0261529566612067e-05   -4.224973960606764e-07
0.00017296564070102088   0.0   -0.0002618684500631867
0.00017296564070102088   0.0   -0.0002618684500631867
0.00017296564070102088   0.0   -0.0002618684500631867
0.00017296564070102088   0.0   -0.0002618684500631867
1.9752489028703132e-05   -1.5294642133120066e-05   2.663588003881518e-06
1.9752489028703132e-05   -1.5294642133120066e-05   2.663588003881518e-06
1.9752489028703132e-05   -1.5294642133120066e-05   2.663588003881518e-06
1.9752489028703132e-05   -1.5294642133120066e-05   2.663588003881518e-06
9.484822881503763e-05   -1.1307953219973852e-05   -0.0001248879916545636
9.484822881503763e-05   -1.1307953219973852e-05   -0.0001248879916545636
9.484822881503763e-05   -1.1307953219973852e-05   -0.0001248879916545636
9.484822881503763e-05   -1.1307953219973852e-05   -0.0001248879916545636
1.9752489028703132e-05   0.0   -0.0002526916647833147
1.9752489028703132e-05   0.0   -0.0002526916647833147
1.9752489028703132e-05   0.0   -0.0002526916647833147
1.9752489028703132e-05   0.0   -0.0002526916647833147
0.00017296564070102088   -1.5294642133120066e-05   -6.513197275990503e-06
0.00017296564070102088   -1.5294642133120066e-05   -6.513197275990503e-06
0.00017296564070102088   -1.5294642133120066e-05   -6.513197275990503e-06
0.00017296564070102088   -1.5294642133120066e-05   -6.513197275990503e-06
0.00017214526660670702   0.0   -0.00025812840584546687
0.00017214526660670702   0.0   -0.00025812840584546687
0.00017214526660670702   0.0   -0.00025812840584546687
0.00017214526660670702   0.0   -0.00025812840584546687
2.2127944825805125e-05   -9.654617220997673e-06   -2.3067658780317787e-06
2.2127944825805125e-05   -9.654617220997673e-06   -2.3067658780317787e-06
2.2127944825805125e-05   -9.654617220997673e-06   -2.3067658780317787e-06
2.2127944825805125e-05   -9.654617220997673e-06   -2.3067658780317787e-06
9.594887781770508e-05   -4.530617551793488e-06   -0.00012841605399938744
9.594887781770508e-05   -4.530617551793488e-06   -0.00012841605399938744
9.594887781770508e-05   -4.530617551793488e-06   -0.00012841605399938744
9.594887781770508e-05   -4.530617551793488e-06   -0.00012841605399938744
2.2127944825805108e-05   0.0   -0.00025233563551286804
2.2127944825805108e-05   0.0   -0.00025233563551286804
2.2127944825805108e-05   0.0   -0.00025233563551286804
2.2127944825805108e-05   0.0   -0.00025233563551286804
0.00017214526660670702   -9.654617220997673e-06   -8.099536210630386e-06
0.00017214526660670702   -9.654617220997673e-06   -8.099536210630386e-06
0.00017214526660670702   -9.654617220997673e-06   -8.099536210630386e-06
0.00017214526660670702   -9.654617220997673e-06   -8.099536210630386e-06
0.00017540272956333584   0.0   -0.00024808249418241645
0.00017540272956333584   0.0   -0.00024808249418241645
0.00017540272956333584   0.0   -0.00024808249418241645
0.00017540272956333584   0.0   -0.00024808249418241645
2.534783892178081e-05   -2.070833124169708e-06   3.2514900946770605e-06
2.534783892178081e-05   -2.070833124169708e-06   3.2514900946770605e-06
2.534783892178081e-05   -2.070833124169708e-06   3.2514900946770605e-06
2.534783892178081e-05   -2.070833124169708e-06   3.2514900946770605e-06
9.876533719457041e-05   3.5442844420431802e-06   -0.00012248007756636656
9.876533719457041e-05   3.5442844420431802e-06   -0.00012248007756636656
9.876533719457041e-05   3.5442844420431802e-06   -0.00012248007756636656
9.876533719457041e-05   3.5442844420431802e-06   -0.00012248007756636656
0.0001727508128549291   0.0   -0.0002604558239391853
0.0001727508128549291   0.0   -0.0002604558239391853
0.0001727508128549291   0.0   -0.0002604558239391853
0.0001727508128549291   0.0   -0.0002604558239391853
0.0003895213266842664   -5.1300755082240386e-05   7.004791272703474e-05
0.0003895213266842664   -5.1300755082240386e-05   7.004791272703474e-05
0.0003895213266842664   -5.1300755082240386e-05   7.004791272703474e-05
0.0003895213266842664   -5.1300755082240386e-05   7.004791272703474e-05
0.0003657034273931782   0.0   -0.0002880869844153821
0.0003657034273931782   0.0   -0.0002880869844153821
0.0003657034273931782   0.0   -0.0002880869844153821
0.0003657034273931782   0.0   -0.0002880869844153821
0.00017296564070102088   -4.3697557253659e-05   5.9361194423742096e-05
0.00017296564070102088   -4.3697557253659e-05   5.9361194423742096e-05
0.00017296564070102088   -4.3697557253659e-05   5.9361194423742096e-05
0.00017296564070102088   -4.3697557253659e-05   5.9361194423742096e-05
0.00026922712012405364   -2.3025967063497346e-05   -0.00011347755872874273
0.00026922712012405364   -2.3025967063497346e-05   -0.00011347755872874273
0.00026922712012405364   -2.3025967063497346e-05   -0.00011347755872874273
0.00026922712012405364   -2.3025967063497346e-05   -0.00011347755872874273
0.00017296564070102072   0.0   -0.0002618684500631865
0.00017296564070102072   0.0   -0.0002618684500631865
0.00017296564070102072   0.0   -0.0002618684500631865
0.00017296564070102072   0.0   -0.0002618684500631865
0.0003657034273931769   -4.369755725365889e-05   3.314266007154658e-05
0.0003657034273931769   -4.369755725365889e-05   3.314266007154658e-05
0.0003657034273931769   -4.369755725365889e-05   3.314266007154658e-05
0.0003657034273931769   -4.369755725365889e-05   3.314266007154658e-05
0.00035468409288540886   0.0   -0.0002820966259140441
0.00035468409288540886   0.0   -0.0002820966259140441
0.00035468409288540886   0.0   -0.0002820966259140441
0.00035468409288540886   0.0   -0.0002820966259140441
0.00017214526660670702   -3.994703344762865e-05   4.610297128570276e-05
0.00017214526660670702   -3.994703344762865e-05   4.610297128570276e-05
0.00017214526660670702   -3.994703344762865e-05   4.610297128570276e-05
0.00017214526660670702   -3.994703344762865e-05   4.610297128570276e-05
0.0002638248667932147   -1.6856813209047806e-05   -0.00012055049450162514
0.0002638248667932147   -1.6856813209047806e-05   -0.00012055049450162514
0.0002638248667932147   -1.6856813209047806e-05   -0.00012055049450162514
0.0002638248667932147   -1.6856813209047806e-05   -0.00012055049450162514
0.00017214526660670702   0.0   -0.00025812840584546687
0.00017214526660670702   0.0   -0.00025812840584546687
0.00017214526660670702   0.0   -0.00025812840584546687
0.00017214526660670702   0.0   -0.00025812840584546687
0.0003546840928854076   -3.9947033447628485e-05   2.213475121712555e-05
0.0003546840928854076   -3.9947033447628485e-05   2.213475121712555e-05
0.0003546840928854076   -3.9947033447628485e-05   2.213475121712555e-05
0.0003546840928854076   -3.9947033447628485e-05   2.213475121712555e-05
0.00033833503038131464   0.0   -0.0002667455726161571
0.00033833503038131464   0.0   -0.0002667455726161571
0.00033833503038131464   0.0   -0.0002667455726161571
0.00033833503038131464   0.0   -0.0002667455726161571
0.00017540272956333584   -3.110513072290182e-05   2.3471340514215843e-05
0.00017540272956333584   -3.110513072290182e-05   2.3471340514215843e-05
0.00017540272956333584   -3.110513072290182e-05   2.3471340514215843e-05
0.00017540272956333584   -3.110513072290182e-05   2.3471340514215843e-05
0.00025524014849401114   -7.180972308908919e-06   -0.00012394551941863861
0.00025524014849401114   -7.180972308908919e-06   -0.00012394551941863861
0.00025524014849401114   -7.180972308908919e-06   -0.00012394551941863861
0.00025524014849401114   -7.180972308908919e-06   -0.00012394551941863861
-0.00038125016772033423   4.871453087866741e-05   -0.0002495153290674729