<?xml version="1.0"?> 
<VTKFile type="UnstructuredGrid"> 
   <UnstructuredGrid> 
      <Piece NumberOfPoints="6000"  NumberOfCells="1500">  
          <Points>  
             <DataArray type="Float64" NumberOfComponents="3" format="ascii">   
-500.0   0.0   0.0
-450.0   0.0   0.0
-500.0   30.0   0.0
-500.0   0.0   16.666666666666668
-450.0   0.0   0.0
-450.0   30.0   0.0
-500.0   30.0   0.0
-450.0   30.0   16.666666666666668
-500.0   0.0   16.666666666666668
-500.0   30.0   16.666666666666668
-450.0   30.0   16.666666666666668
-500.0   30.0   0.0
-500.0   0.0   16.666666666666668
-450.0   30.0   16.666666666666668
-450.0   0.0   16.666666666666668
-450.0   0.0   0.0
-500.0   0.0   16.666666666666668
-450.0   30.0   16.666666666666668
-450.0   0.0   0.0
-500.0   30.0   0.0
-500.0   0.0   16.666666666666668
-450.0   0.0   16.666666666666668
-500.0   30.0   16.666666666666668
-500.0   0.0   33.333333333333336
-450.0   0.0   16.666666666666668
-450.0   30.0   16.666666666666668
-500.0   30.0   16.666666666666668
-450.0   30.0   33.333333333333336
-500.0   0.0   33.333333333333336
-500.0   30.0   33.333333333333336
-450.0   30.0   33.333333333333336
-500.0   30.0   16.666666666666668
-500.0   0.0   33.333333333333336
-450.0   30.0   33.333333333333336
-450.0   0.0   33.333333333333336
-450.0   0.0   16.666666666666668
-500.0   0.0   33.333333333333336
-450.0   30.0   33.333333333333336
-450.0   0.0   16.666666666666668
-500.0   30.0   16.666666666666668
-500.0   0.0   33.333333333333336
-450.0   0.0   33.333333333333336
-500.0   30.0   33.333333333333336
-500.0   0.0   50.0
-450.0   0.0   33.333333333333336
-450.0   30.0   33.333333333333336
-500.0   30.0   33.333333333333336
-450.0   30.0   50.0
-500.0   0.0   50.0
-500.0   30.0   50.0
-450.0   30.0   50.0
-500.0   30.0   33.333333333333336
-500.0   0.0   50.0
-450.0   30.0   50.0
-450.0   0.0   50.0
-450.0   0.0   33.333333333333336
-500.0   0.0   50.0
-450.0   30.0   50.0
-450.0   0.0   33.333333333333336
-500.0   30.0   33.333333333333336
-500.0   30.0   0.0
-450.0   30.0   0.0
-500.0   60.0   0.0
-500.0   30.0   16.666666666666668
-450.0   30.0   0.0
-450.0   60.0   0.0
-500.0   60.0   0.0
-450.0   60.0   16.666666666666668
-500.0   30.0   16.666666666666668
-500.0   60.0   16.666666666666668
-450.0   60.0   16.666666666666668
-500.0   60.0   0.0
-500.0   30.0   16.666666666666668
-450.0   60.0   16.666666666666668
-450.0   30.0   16.666666666666668
-450.0   30.0   0.0
-500.0   30.0   16.666666666666668
-450.0   60.0   16.666666666666668
-450.0   30.0   0.0
-500.0   60.0   0.0
-500.0   30.0   16.666666666666668
-450.0   30.0   16.666666666666668
-500.0   60.0   16.666666666666668
-500.0   30.0   33.333333333333336
-450.0   30.0   16.666666666666668
-450.0   60.0   16.666666666666668
-500.0   60.0   16.666666666666668
-450.0   60.0   33.333333333333336
-500.0   30.0   33.333333333333336
-500.0   60.0   33.333333333333336
-450.0   60.0   33.333333333333336
-500.0   60.0   16.666666666666668
-500.0   30.0   33.333333333333336
-450.0   60.0   33.333333333333336
-450.0   30.0   33.333333333333336
-450.0   30.0   16.666666666666668
-500.0   30.0   33.333333333333336
-450.0   60.0   33.333333333333336
-450.0   30.0   16.666666666666668
-500.0   60.0   16.666666666666668
-500.0   30.0   33.333333333333336
-450.0   30.0   33.333333333333336
-500.0   60.0   33.333333333333336
-500.0   30.0   50.0
-450.0   30.0   33.333333333333336
-450.0   60.0   33.333333333333336
-500.0   60.0   33.333333333333336
-450.0   60.0   50.0
-500.0   30.0   50.0
-500.0   60.0   50.0
-450.0   60.0   50.0
-500.0   60.0   33.333333333333336
-500.0   30.0   50.0
-450.0   60.0   50.0
-450.0   30.0   50.0
-450.0   30.0   33.333333333333336
-500.0   30.0   50.0
-450.0   60.0   50.0
-450.0   30.0   33.333333333333336
-500.0   60.0   33.333333333333336
-500.0   60.0   0.0
-450.0   60.0   0.0
-500.0   90.0   0.0
-500.0   60.0   16.666666666666668
-450.0   60.0   0.0
-450.0   90.0   0.0
-500.0   90.0   0.0
-450.0   90.0   16.666666666666668
-500.0   60.0   16.666666666666668
-500.0   90.0   16.666666666666668
-450.0   90.0   16.666666666666668
-500.0   90.0   0.0
-500.0   60.0   16.666666666666668
-450.0   90.0   16.666666666666668
-450.0   60.0   16.666666666666668
-450.0   60.0   0.0
-500.0   60.0   16.666666666666668
-450.0   90.0   16.666666666666668
-450.0   60.0   0.0
-500.0   90.0   0.0
-500.0   60.0   16.666666666666668
-450.0   60.0   16.666666666666668
-500.0   90.0   16.666666666666668
-500.0   60.0   33.333333333333336
-450.0   60.0   16.666666666666668
-450.0   90.0   16.666666666666668
-500.0   90.0   16.666666666666668
-450.0   90.0   33.333333333333336
-500.0   60.0   33.333333333333336
-500.0   90.0   33.333333333333336
-450.0   90.0   33.333333333333336
-500.0   90.0   16.666666666666668
-500.0   60.0   33.333333333333336
-450.0   90.0   33.333333333333336
-450.0   60.0   33.333333333333336
-450.0   60.0   16.666666666666668
-500.0   60.0   33.333333333333336
-450.0   90.0   33.333333333333336
-450.0   60.0   16.666666666666668
-500.0   90.0   16.666666666666668
-500.0   60.0   33.333333333333336
-450.0   60.0   33.333333333333336
-500.0   90.0   33.333333333333336
-500.0   60.0   50.0
-450.0   60.0   33.333333333333336
-450.0   90.0   33.333333333333336
-500.0   90.0   33.333333333333336
-450.0   90.0   50.0
-500.0   60.0   50.0
-500.0   90.0   50.0
-450.0   90.0   50.0
-500.0   90.0   33.333333333333336
-500.0   60.0   50.0
-450.0   90.0   50.0
-450.0   60.0   50.0
-450.0   60.0   33.333333333333336
-500.0   60.0   50.0
-450.0   90.0   50.0
-450.0   60.0   33.333333333333336
-500.0   90.0   33.333333333333336
-500.0   90.0   0.0
-450.0   90.0   0.0
-500.0   120.0   0.0
-500.0   90.0   16.666666666666668
-450.0   90.0   0.0
-450.0   120.0   0.0
-500.0   120.0   0.0
-450.0   120.0   16.666666666666668
-500.0   90.0   16.666666666666668
-500.0   120.0   16.666666666666668
-450.0   120.0   16.666666666666668
-500.0   120.0   0.0
-500.0   90.0   16.666666666666668
-450.0   120.0   16.666666666666668
-450.0   90.0   16.666666666666668
-450.0   90.0   0.0
-500.0   90.0   16.666666666666668
-450.0   120.0   16.666666666666668
-450.0   90.0   0.0
-500.0   120.0   0.0
-500.0   90.0   16.666666666666668
-450.0   90.0   16.666666666666668
-500.0   120.0   16.666666666666668
-500.0   90.0   33.333333333333336
-450.0   90.0   16.666666666666668
-450.0   120.0   16.666666666666668
-500.0   120.0   16.666666666666668
-450.0   120.0   33.333333333333336
-500.0   90.0   33.333333333333336
-500.0   120.0   33.333333333333336
-450.0   120.0   33.333333333333336
-500.0   120.0   16.666666666666668
-500.0   90.0   33.333333333333336
-450.0   120.0   33.333333333333336
-450.0   90.0   33.333333333333336
-450.0   90.0   16.666666666666668
-500.0   90.0   33.333333333333336
-450.0   120.0   33.333333333333336
-450.0   90.0   16.666666666666668
-500.0   120.0   16.666666666666668
-500.0   90.0   33.333333333333336
-450.0   90.0   33.333333333333336
-500.0   120.0   33.333333333333336
-500.0   90.0   50.0
-450.0   90.0   33.333333333333336
-450.0   120.0   33.333333333333336
-500.0   120.0   33.333333333333336
-450.0   120.0   50.0
-500.0   90.0   50.0
-500.0   120.0   50.0
-450.0   120.0   50.0
-500.0   120.0   33.333333333333336
-500.0   90.0   50.0
-450.0   120.0   50.0
-450.0   90.0   50.0
-450.0   90.0   33.333333333333336
-500.0   90.0   50.0
-450.0   120.0   50.0
-450.0   90.0   33.333333333333336
-500.0   120.0   33.333333333333336
-500.0   120.0   0.0
-450.0   120.0   0.0
-500.0   150.0   0.0
-500.0   120.0   16.666666666666668
-450.0   120.0   0.0
-450.0   150.0   0.0
-500.0   150.0   0.0
-450.0   150.0   16.666666666666668
-500.0   120.0   16.666666666666668
-500.0   150.0   16.666666666666668
-450.0   150.0   16.666666666666668
-500.0   150.0   0.0
-500.0   120.0   16.666666666666668
-450.0   150.0   16.666666666666668
-450.0   120.0   16.666666666666668
-450.0   120.0   0.0
-500.0   120.0   16.666666666666668
-450.0   150.0   16.666666666666668
-450.0   120.0   0.0
-500.0   150.0   0.0
-500.0   120.0   16.666666666666668
-450.0   120.0   16.666666666666668
-500.0   150.0   16.666666666666668
-500.0   120.0   33.333333333333336
-450.0   120.0   16.666666666666668
-450.0   150.0   16.666666666666668
-500.0   150.0   16.666666666666668
-450.0   150.0   33.333333333333336
-500.0   120.0   33.333333333333336
-500.0   150.0   33.333333333333336
-450.0   150.0   33.333333333333336
-500.0   150.0   16.666666666666668
-500.0   120.0   33.333333333333336
-450.0   150.0   33.333333333333336
-450.0   120.0   33.333333333333336
-450.0   120.0   16.666666666666668
-500.0   120.0   33.333333333333336
-450.0   150.0   33.333333333333336
-450.0   120.0   16.666666666666668
-500.0   150.0   16.666666666666668
-500.0   120.0   33.333333333333336
-450.0   120.0   33.333333333333336
-500.0   150.0   33.333333333333336
-500.0   120.0   50.0
-450.0   120.0   33.333333333333336
-450.0   150.0   33.333333333333336
-500.0   150.0   33.333333333333336
-450.0   150.0   50.0
-500.0   120.0   50.0
-500.0   150.0   50.0
-450.0   150.0   50.0
-500.0   150.0   33.333333333333336
-500.0   120.0   50.0
-450.0   150.0   50.0
-450.0   120.0   50.0
-450.0   120.0   33.333333333333336
-500.0   120.0   50.0
-450.0   150.0   50.0
-450.0   120.0   33.333333333333336
-500.0   150.0   33.333333333333336
-450.0   0.0   0.0
-400.0   0.0   0.0
-450.0   30.0   0.0
-450.0   0.0   16.666666666666668
-400.0   0.0   0.0
-400.0   30.0   0.0
-450.0   30.0   0.0
-400.0   30.0   16.666666666666668
-450.0   0.0   16.666666666666668
-450.0   30.0   16.666666666666668
-400.0   30.0   16.666666666666668
-450.0   30.0   0.0
-450.0   0.0   16.666666666666668
-400.0   30.0   16.666666666666668
-400.0   0.0   16.666666666666668
-400.0   0.0   0.0
-450.0   0.0   16.666666666666668
-400.0   30.0   16.666666666666668
-400.0   0.0   0.0
-450.0   30.0   0.0
-450.0   0.0   16.666666666666668
-400.0   0.0   16.666666666666668
-450.0   30.0   16.666666666666668
[...]
          <PointData>  
             <DataArray type="Float64" NumberOfComponents="3" Name="Strains" format="ascii">   
-0.00025083817552188514   0.0   -0.00016419242898767664
-0.00025083817552188514   0.0   -0.00016419242898767664
-0.00025083817552188514   0.0   -0.00016419242898767664
-0.00025083817552188514   0.0   -0.00016419242898767664
-0.00015965603400304318   2.7845528887236607e-05   4.485124209401643e-06
-0.00015965603400304318   2.7845528887236607e-05   4.485124209401643e-06
-0.00015965603400304318   2.7845528887236607e-05   4.485124209401643e-06
-0.00015965603400304318   2.7845528887236607e-05   4.485124209401643e-06
-0.0001565286521680221   0.0   -0.00015490821910645622
-0.0001565286521680221   0.0   -0.00015490821910645622
-0.0001565286521680221   0.0   -0.00015490821910645622
-0.0001565286521680221   0.0   -0.00015490821910645622
-0.00026255124108473   3.338863344758711e-05   1.7629156861720028e-06
-0.00026255124108473   3.338863344758711e-05   1.7629156861720028e-06
-0.00026255124108473   3.338863344758711e-05   1.7629156861720028e-06
-0.00026255124108473   3.338863344758711e-05   1.7629156861720028e-06
-0.00020368341384495328   7.736841567683672e-06   -8.09590545855137e-05
-0.00020368341384495328   7.736841567683672e-06   -8.09590545855137e-05
-0.00020368341384495328   7.736841567683672e-06   -8.09590545855137e-05
-0.00020368341384495328   7.736841567683672e-06   -8.09590545855137e-05
-0.00026255124108473044   0.0   -0.00017494139917500852
-0.00026255124108473044   0.0   -0.00017494139917500852
-0.00026255124108473044   0.0   -0.00017494139917500852
-0.00026255124108473044   0.0   -0.00017494139917500852
-0.0001565286521680221   3.338863344758716e-05   2.1796095754724333e-05
-0.0001565286521680221   3.338863344758716e-05   2.1796095754724333e-05
-0.0001565286521680221   3.338863344758716e-05   2.1796095754724333e-05
-0.0001565286521680221   3.338863344758716e-05   2.1796095754724333e-05
-0.00015700263631484914   0.0   -0.00015870858805390646
-0.00015700263631484914   0.0   -0.00015870858805390646
-0.00015700263631484914   0.0   -0.00015870858805390646
-0.00015700263631484914   0.0   -0.00015870858805390646
-0.000270792153322536   3.576341856248932e-05   9.482555821412118e-06
-0.000270792153322536   3.576341856248932e-05   9.482555821412118e-06
-0.000270792153322536   3.576341856248932e-05   9.482555821412118e-06
-0.000270792153322536   3.576341856248932e-05   9.482555821412118e-06
-0.00020977693869978945   1.3527342600918387e-05   -7.886782297288953e-05
-0.00020977693869978945   1.3527342600918387e-05   -7.886782297288953e-05
-0.00020977693869978945   1.3527342600918387e-05   -7.886782297288953e-05
-0.00020977693869978945   1.3527342600918387e-05   -7.886782297288953e-05
-0.0002707921533225365   0.0   -0.00018016663919140008
-0.0002707921533225365   0.0   -0.00018016663919140008
-0.0002707921533225365   0.0   -0.00018016663919140008
-0.0002707921533225365   0.0   -0.00018016663919140008
-0.00015700263631484914   3.576341856248937e-05   3.094060695890574e-05
-0.00015700263631484914   3.576341856248937e-05   3.094060695890574e-05
-0.00015700263631484914   3.576341856248937e-05   3.094060695890574e-05
-0.00015700263631484914   3.576341856248937e-05   3.094060695890574e-05
-0.00015695680029805328   0.0   -0.00015967999919685885
-0.00015695680029805328   0.0   -0.00015967999919685885
-0.00015695680029805328   0.0   -0.00015967999919685885
-0.00015695680029805328   0.0   -0.00015967999919685885
-0.0002885130505926143   4.0718537230148035e-05   3.5149295622654664e-05
-0.0002885130505926143   4.0718537230148035e-05   3.5149295622654664e-05
-0.0002885130505926143   4.0718537230148035e-05   3.5149295622654664e-05
-0.0002885130505926143   4.0718537230148035e-05   3.5149295622654664e-05
-0.0002138744768102945   1.7072199995451002e-05   -7.506052500705996e-05
-0.0002138744768102945   1.7072199995451002e-05   -7.506052500705996e-05
-0.0002138744768102945   1.7072199995451002e-05   -7.506052500705996e-05
-0.0002138744768102945   1.7072199995451002e-05   -7.506052500705996e-05
-0.00015965603400304345   0.0   -0.00014748511165533465
-0.00015965603400304345   0.0   -0.00014748511165533465
-0.00015965603400304345   0.0   -0.00014748511165533465
-0.00015965603400304345   0.0   -0.00014748511165533465
-7.267058456789121e-05   1.0223733362352955e-05   3.624877420664097e-06
-7.267058456789121e-05   1.0223733362352955e-05   3.624877420664097e-06
-7.267058456789121e-05   1.0223733362352955e-05   3.624877420664097e-06
-7.267058456789121e-05   1.0223733362352955e-05   3.624877420664097e-06
-6.992526038604346e-05   0.0   -0.000146186320630583
-6.992526038604346e-05   0.0   -0.000146186320630583
-6.992526038604346e-05   0.0   -0.000146186320630583
-6.992526038604346e-05   0.0   -0.000146186320630583
-0.0001565286521680221   1.4536497459788665e-05   -1.0569232803158465e-05
-0.0001565286521680221   1.4536497459788665e-05   -1.0569232803158465e-05
-0.0001565286521680221   1.4536497459788665e-05   -1.0569232803158465e-05
-0.0001565286521680221   1.4536497459788665e-05   -1.0569232803158465e-05
-0.00011479064719454327   1.0823258539597013e-06   -7.206007146212535e-05
-0.00011479064719454327   1.0823258539597013e-06   -7.206007146212535e-05
-0.00011479064719454327   1.0823258539597013e-06   -7.206007146212535e-05
-0.00011479064719454327   1.0823258539597013e-06   -7.206007146212535e-05
-0.00015652865216802197   0.0   -0.00015490821910645608
-0.00015652865216802197   0.0   -0.00015490821910645608
-0.00015652865216802197   0.0   -0.00015490821910645608
-0.00015652865216802197   0.0   -0.00015490821910645608
-6.992526038604346e-05   1.4536497459788665e-05   -1.8473343272852686e-06
-6.992526038604346e-05   1.4536497459788665e-05   -1.8473343272852686e-06
-6.992526038604346e-05   1.4536497459788665e-05   -1.8473343272852686e-06
-6.992526038604346e-05   1.4536497459788665e-05   -1.8473343272852686e-06
-6.839670564081223e-05   0.0   -0.00014802808383461002
-6.839670564081223e-05   0.0   -0.00014802808383461002
-6.839670564081223e-05   0.0   -0.00014802808383461002
-6.839670564081223e-05   0.0   -0.00014802808383461002
-0.00015700263631484914   1.7800840365494043e-05   -1.1032036930511667e-05
-0.00015700263631484914   1.7800840365494043e-05   -1.1032036930511667e-05
-0.00015700263631484914   1.7800840365494043e-05   -1.1032036930511667e-05
-0.00015700263631484914   1.7800840365494043e-05   -1.1032036930511667e-05
-0.00011246267890441695   5.733446059871827e-06   -7.802486269785794e-05
-0.00011246267890441695   5.733446059871827e-06   -7.802486269785794e-05
-0.00011246267890441695   5.733446059871827e-06   -7.802486269785794e-05
-0.00011246267890441695   5.733446059871827e-06   -7.802486269785794e-05
-0.00015700263631484914   0.0   -0.00015870858805390646
-0.00015700263631484914   0.0   -0.00015870858805390646
-0.00015700263631484914   0.0   -0.00015870858805390646
-0.00015700263631484914   0.0   -0.00015870858805390646
-6.839670564081223e-05   1.7800840365494043e-05   -3.515327112152113e-07
-6.839670564081223e-05   1.7800840365494043e-05   -3.515327112152113e-07
-6.839670564081223e-05   1.7800840365494043e-05   -3.515327112152113e-07
-6.839670564081223e-05   1.7800840365494043e-05   -3.515327112152113e-07
-6.70102131745577e-05   0.0   -0.00014725661788464
-6.70102131745577e-05   0.0   -0.00014725661788464
-6.70102131745577e-05   0.0   -0.00014725661788464
-6.70102131745577e-05   0.0   -0.00014725661788464
-0.00015695680029805288   2.0705635520364455e-05   -9.769020657699422e-06
-0.00015695680029805288   2.0705635520364455e-05   -9.769020657699422e-06
-0.00015695680029805288   2.0705635520364455e-05   -9.769020657699422e-06
-0.00015695680029805288   2.0705635520364455e-05   -9.769020657699422e-06
-0.00011200642474470338   9.543308474388597e-06   -7.798891701903039e-05
-0.00011200642474470338   9.543308474388597e-06   -7.798891701903039e-05
-0.00011200642474470338   9.543308474388597e-06   -7.798891701903039e-05
-0.00011200642474470338   9.543308474388597e-06   -7.798891701903039e-05
-7.267058456789133e-05   0.0   -0.00014135087163792288
-7.267058456789133e-05   0.0   -0.00014135087163792288
-7.267058456789133e-05   0.0   -0.00014135087163792288
-7.267058456789133e-05   0.0   -0.00014135087163792288
9.542139031588631e-06   -1.3014648624035282e-06   -5.110544556231569e-06
9.542139031588631e-06   -1.3014648624035282e-06   -5.110544556231569e-06
9.542139031588631e-06   -1.3014648624035282e-06   -5.110544556231569e-06
9.542139031588631e-06   -1.3014648624035282e-06   -5.110544556231569e-06
1.1279388201036876e-05   0.0   -0.0001446422503535694
1.1279388201036876e-05   0.0   -0.0001446422503535694
1.1279388201036876e-05   0.0   -0.0001446422503535694
1.1279388201036876e-05   0.0   -0.0001446422503535694
-6.992526038604334e-05   2.573450461688503e-06   -1.084523965211572e-05
-6.992526038604334e-05   2.573450461688503e-06   -1.084523965211572e-05
-6.992526038604334e-05   2.573450461688503e-06   -1.084523965211572e-05
-6.992526038604334e-05   2.573450461688503e-06   -1.084523965211572e-05
-3.06955981834271e-05   -2.742815596372511e-06   -7.303825035497255e-05
-3.06955981834271e-05   -2.742815596372511e-06   -7.303825035497255e-05
-3.06955981834271e-05   -2.742815596372511e-06   -7.303825035497255e-05
-3.06955981834271e-05   -2.742815596372511e-06   -7.303825035497255e-05
-6.992526038604346e-05   0.0   -0.000146186320630583
-6.992526038604346e-05   0.0   -0.000146186320630583
-6.992526038604346e-05   0.0   -0.000146186320630583
-6.992526038604346e-05   0.0   -0.000146186320630583
1.1279388201036897e-05   2.573450461688503e-06   -9.301169375102605e-06
1.1279388201036897e-05   2.573450461688503e-06   -9.301169375102605e-06
1.1279388201036897e-05   2.573450461688503e-06   -9.301169375102605e-06
1.1279388201036897e-05   2.573450461688503e-06   -9.301169375102605e-06
1.264623366603832e-05   0.0   -0.00014443781708604563
1.264623366603832e-05   0.0   -0.00014443781708604563
1.264623366603832e-05   0.0   -0.00014443781708604563
1.264623366603832e-05   0.0   -0.00014443781708604563
-6.8396705640812e-05   5.983777914273566e-06   -1.295651832319238e-05
-6.8396705640812e-05   5.983777914273566e-06   -1.295651832319238e-05
-6.8396705640812e-05   5.983777914273566e-06   -1.295651832319238e-05
-6.8396705640812e-05   5.983777914273566e-06   -1.295651832319238e-05
-2.863951336000251e-05   1.4570862871142774e-06   -7.650249048157942e-05
-2.863951336000251e-05   1.4570862871142774e-06   -7.650249048157942e-05
-2.863951336000251e-05   1.4570862871142774e-06   -7.650249048157942e-05
-2.863951336000251e-05   1.4570862871142774e-06   -7.650249048157942e-05
-6.839670564081223e-05   0.0   -0.00014802808383461002
-6.839670564081223e-05   0.0   -0.00014802808383461002
-6.839670564081223e-05   0.0   -0.00014802808383461002
-6.839670564081223e-05   0.0   -0.00014802808383461002
1.2646233666038342e-05   5.983777914273593e-06   -9.366251574628264e-06
1.2646233666038342e-05   5.983777914273593e-06   -9.366251574628264e-06
1.2646233666038342e-05   5.983777914273593e-06   -9.366251574628264e-06
1.2646233666038342e-05   5.983777914273593e-06   -9.366251574628264e-06
1.449613449659605e-05   0.0   -0.0001412951730979771
1.449613449659605e-05   0.0   -0.0001412951730979771
1.449613449659605e-05   0.0   -0.0001412951730979771
1.449613449659605e-05   0.0   -0.0001412951730979771
-6.701021317455753e-05   9.935741311104576e-06   -1.1412705099383752e-05
-6.701021317455753e-05   9.935741311104576e-06   -1.1412705099383752e-05
-6.701021317455753e-05   9.935741311104576e-06   -1.1412705099383752e-05
-6.701021317455753e-05   9.935741311104576e-06   -1.1412705099383752e-05
-2.6950285572108032e-05   5.610758947193864e-06   -7.55842616851199e-05
-2.6950285572108032e-05   5.610758947193864e-06   -7.55842616851199e-05
-2.6950285572108032e-05   5.610758947193864e-06   -7.55842616851199e-05
-2.6950285572108032e-05   5.610758947193864e-06   -7.55842616851199e-05
9.542139031588648e-06   0.0   -0.00014213175055536497
9.542139031588648e-06   0.0   -0.00014213175055536497
9.542139031588648e-06   0.0   -0.00014213175055536497
9.542139031588648e-06   0.0   -0.00014213175055536497
9.87551175238329e-05   -1.1582795109894346e-05   -3.931301342277561e-07
9.87551175238329e-05   -1.1582795109894346e-05   -3.931301342277561e-07
9.87551175238329e-05   -1.1582795109894346e-05   -3.931301342277561e-07
9.87551175238329e-05   -1.1582795109894346e-05   -3.931301342277561e-07
9.888832796903781e-05   0.0   -0.00014988689139946543
9.888832796903781e-05   0.0   -0.00014988689139946543
9.888832796903781e-05   0.0   -0.00014988689139946543
9.888832796903781e-05   0.0   -0.00014988689139946543
1.1279388201036917e-05   -8.74106840982589e-06   1.372649259764905e-06
1.1279388201036917e-05   -8.74106840982589e-06   1.372649259764905e-06
1.1279388201036917e-05   -8.74106840982589e-06   1.372649259764905e-06
1.1279388201036917e-05   -8.74106840982589e-06   1.372649259764905e-06
5.421523350031323e-05   -6.462617370083719e-06   -7.155416352954085e-05
5.421523350031323e-05   -6.462617370083719e-06   -7.155416352954085e-05
5.421523350031323e-05   -6.462617370083719e-06   -7.155416352954085e-05
5.421523350031323e-05   -6.462617370083719e-06   -7.155416352954085e-05
1.1279388201036917e-05   0.0   -0.0001446422503535699
1.1279388201036917e-05   0.0   -0.0001446422503535699
1.1279388201036917e-05   0.0   -0.0001446422503535699
1.1279388201036917e-05   0.0   -0.0001446422503535699
9.888832796903781e-05   -8.74106840982589e-06   -3.871991786130616e-06
9.888832796903781e-05   -8.74106840982589e-06   -3.871991786130616e-06
9.888832796903781e-05   -8.74106840982589e-06   -3.871991786130616e-06
9.888832796903781e-05   -8.74106840982589e-06   -3.871991786130616e-06
9.842827031917252e-05   0.0   -0.00014774625947494273
9.842827031917252e-05   0.0   -0.00014774625947494273
9.842827031917252e-05   0.0   -0.00014774625947494273
9.842827031917252e-05   0.0   -0.00014774625947494273
1.2646233666038342e-05   -5.514070648161422e-06   -1.467755997488943e-06
1.2646233666038342e-05   -5.514070648161422e-06   -1.467755997488943e-06
1.2646233666038342e-05   -5.514070648161422e-06   -1.467755997488943e-06
1.2646233666038342e-05   -5.514070648161422e-06   -1.467755997488943e-06
5.485382926010472e-05   -2.586674267810685e-06   -7.357018648247661e-05
5.485382926010472e-05   -2.586674267810685e-06   -7.357018648247661e-05
5.485382926010472e-05   -2.586674267810685e-06   -7.357018648247661e-05
5.485382926010472e-05   -2.586674267810685e-06   -7.357018648247661e-05
1.2646233666038332e-05   0.0   -0.00014443781708604574
1.2646233666038332e-05   0.0   -0.00014443781708604574
1.2646233666038332e-05   0.0   -0.00014443781708604574
1.2646233666038332e-05   0.0   -0.00014443781708604574
9.842827031917252e-05   -5.514070648161422e-06   -4.7761983863857794e-06
9.842827031917252e-05   -5.514070648161422e-06   -4.7761983863857794e-06
9.842827031917252e-05   -5.514070648161422e-06   -4.7761983863857794e-06
9.842827031917252e-05   -5.514070648161422e-06   -4.7761983863857794e-06
0.00010029942610712212   0.0   -0.0001420004610404063
0.00010029942610712212   0.0   -0.0001420004610404063
0.00010029942610712212   0.0   -0.0001420004610404063
0.00010029942610712212   0.0   -0.0001420004610404063
1.4496134496596075e-05   -1.1754799040482376e-06   1.7103129195660242e-06
1.4496134496596075e-05   -1.1754799040482376e-06   1.7103129195660242e-06
1.4496134496596075e-05   -1.1754799040482376e-06   1.7103129195660242e-06
1.4496134496596075e-05   -1.1754799040482376e-06   1.7103129195660242e-06
5.647282988658019e-05   2.0311300380329757e-06   -7.01748120289895e-05
5.647282988658019e-05   2.0311300380329757e-06   -7.01748120289895e-05
5.647282988658019e-05   2.0311300380329757e-06   -7.01748120289895e-05
5.647282988658019e-05   2.0311300380329757e-06   -7.01748120289895e-05
9.87551175238329e-05   0.0   -0.0001490814276213016
9.87551175238329e-05   0.0   -0.0001490814276213016
9.87551175238329e-05   0.0   -0.0001490814276213016
9.87551175238329e-05   0.0   -0.0001490814276213016
0.00022272963278030243   -2.9333812896313995e-05   3.994247673502711e-05
0.00022272963278030243   -2.9333812896313995e-05   3.994247673502711e-05
0.00022272963278030243   -2.9333812896313995e-05   3.994247673502711e-05
0.00022272963278030243   -2.9333812896313995e-05   3.994247673502711e-05
0.00020912400383971914   0.0   -0.00016487537003929018
0.00020912400383971914   0.0   -0.00016487537003929018
0.00020912400383971914   0.0   -0.00016487537003929018
0.00020912400383971914   0.0   -0.00016487537003929018
9.888832796903781e-05   -2.4980797733041267e-05   3.3839235051670076e-05
9.888832796903781e-05   -2.4980797733041267e-05   3.3839235051670076e-05
9.888832796903781e-05   -2.4980797733041267e-05   3.3839235051670076e-05
9.888832796903781e-05   -2.4980797733041267e-05   3.3839235051670076e-05
0.000153939560681776   -1.316161868165718e-05   -6.500432690039063e-05
0.000153939560681776   -1.316161868165718e-05   -6.500432690039063e-05
0.000153939560681776   -1.316161868165718e-05   -6.500432690039063e-05
0.000153939560681776   -1.316161868165718e-05   -6.500432690039063e-05
9.888832796903773e-05   0.0   -0.0001498868913994653
9.888832796903773e-05   0.0   -0.0001498868913994653
9.888832796903773e-05   0.0   -0.0001498868913994653
9.888832796903773e-05   0.0   -0.0001498868913994653
0.0002091240038397184   -2.4980797733041213e-05   1.8850756411845212e-05
0.0002091240038397184   -2.4980797733041213e-05   1.8850756411845212e-05
0.0002091240038397184   -2.4980797733041213e-05   1.8850756411845212e-05
0.0002091240038397184   -2.4980797733041213e-05   1.8850756411845212e-05
0.0002028334026059428   0.0   -0.00016144712038842514
0.0002028334026059428   0.0   -0.00016144712038842514
0.0002028334026059428   0.0   -0.00016144712038842514
0.0002028334026059428   0.0   -0.00016144712038842514
9.842827031917252e-05   -2.283476818913736e-05   2.6262294336341067e-05
9.842827031917252e-05   -2.283476818913736e-05   2.6262294336341067e-05
9.842827031917252e-05   -2.283476818913736e-05   2.6262294336341067e-05
9.842827031917252e-05   -2.283476818913736e-05   2.6262294336341067e-05
0.0001508608652874902   -9.63352415746642e-06   -6.904611036319099e-05
0.0001508608652874902   -9.63352415746642e-06   -6.904611036319099e-05
0.0001508608652874902   -9.63352415746642e-06   -6.904611036319099e-05
0.0001508608652874902   -9.63352415746642e-06   -6.904611036319099e-05
9.842827031917252e-05   0.0   -0.00014774625947494273
9.842827031917252e-05   0.0   -0.00014774625947494273
9.842827031917252e-05   0.0   -0.00014774625947494273
9.842827031917252e-05   0.0   -0.00014774625947494273
0.0002028334026059421   -2.2834768189137252e-05   1.2561433422858602e-05
0.0002028334026059421   -2.2834768189137252e-05   1.2561433422858602e-05
0.0002028334026059421   -2.2834768189137252e-05   1.2561433422858602e-05
0.0002028334026059421   -2.2834768189137252e-05   1.2561433422858602e-05
0.0001934940014925785   0.0   -0.00015266489116976418
0.0001934940014925785   0.0   -0.00015266489116976418
0.0001934940014925785   0.0   -0.00015266489116976418
0.0001934940014925785   0.0   -0.00015266489116976418
0.00010029942610712212   -1.7774050215596868e-05   1.3323831268688196e-05
0.00010029942610712212   -1.7774050215596868e-05   1.3323831268688196e-05
0.00010029942610712212   -1.7774050215596868e-05   1.3323831268688196e-05
0.00010029942610712212   -1.7774050215596868e-05   1.3323831268688196e-05
0.00014596113590587567   -4.098859745684761e-06   -7.098413267784828e-05
0.00014596113590587567   -4.098859745684761e-06   -7.098413267784828e-05
0.00014596113590587567   -4.098859745684761e-06   -7.098413267784828e-05
0.00014596113590587567   -4.098859745684761e-06   -7.098413267784828e-05
-0.0002179584001585018   2.7845528887236552e-05   -0.00014272083000447855
-0.0002179584001585018   2.7845528887236552e-05   -0.00014272083000447855
-0.0002179584001585018   2.7845528887236552e-05   -0.00014272083000447855
-0.0002179584001585018   2.7845528887236552e-05   -0.00014272083000447855