<?xml version="1.0"?> 
<VTKFile type="UnstructuredGrid"> 
   <UnstructuredGrid> 
      <Piece NumberOfPoints="6000"  NumberOfCells="1500">  
          <Points>  
             <DataArray type="Float64" NumberOfComponents="3" format="ascii">   
-500.0   0.0   0.0
-450.0   0.0   0.0
-500.0   30.0   0.0
-500.0   0.0   16.666666666666668
-450.0   0.0   0.0
-450.0   30.0   0.0
-500.0   30.0   0.0
-450.0   30.0   16.666666666666668
-500.0   0.0   16.666666666666668
-500.0   30.0   16.666666666666668
-450.0   30.0   16.666666666666668
-500.0   30.0   0.0
-500.0   0.0   16.666666666666668
-450.0   30.0   16.666666666666668
-450.0   0.0   16.666666666666668
-450.0   0.0   0.0
-500.0   0.0   16.666666666666668
-450.0   30.0   16.666666666666668
-450.0   0.0   0.0
-500.0   30.0   0.0
-500.0   0.0   16.666666666666668
-450.0   0.0   16.666666666666668
-500.0   30.0   16.666666666666668
-500.0   0.0   33.333333333333336
-450.0   0.0   16.666666666666668
-450.0   30.0   16.666666666666668
-500.0   30.0   16.666666666666668
-450.0   30.0   33.333333333333336
-500.0   0.0   33.333333333333336
-500.0   30.0   33.333333333333336
-450.0   30.0   33.333333333333336
-500.0   30.0   16.666666666666668
-500.0   0.0   33.333333333333336
-450.0   30.0   33.333333333333336
-450.0   0.0   33.333333333333336
-450.0   0.0   16.666666666666668
-500.0   0.0   33.333333333333336
-450.0   30.0   33.333333333333336
-450.0   0.0   16.666666666666668
-500.0   30.0   16.666666666666668
-500.0   0.0   33.333333333333336
-450.0   0.0   33.333333333333336
-500.0   30.0   33.333333333333336
-500.0   0.0   50.0
-450.0   0.0   33.333333333333336
-450.0   30.0   33.333333333333336
-500.0   30.0   33.333333333333336
-450.0   30.0   50.0
-500.0   0.0   50.0
-500.0   30.0   50.0
-450.0   30.0   50.0
-500.0   30.0   33.333333333333336
-500.0   0.0   50.0
-450.0   30.0   50.0
-450.0   0.0   50.0
-450.0   0.0   33.333333333333336
-500.0   0.0   50.0
-450.0   30.0   50.0
-450.0   0.0   33.333333333333336
-500.0   30.0   33.333333333333336
-500.0   30.0   0.0
-450.0   30.0   0.0
-500.0   60.0   0.0
-500.0   30.0   16.666666666666668
-450.0   30.0   0.0
-450.0   60.0   0.0
-500.0   60.0   0.0
-450.0   60.0   16.666666666666668
-500.0   30.0   16.666666666666668
-500.0   60.0   16.666666666666668
-450.0   60.0   16.666666666666668
-500.0   60.0   0.0
-500.0   30.0   16.666666666666668
-450.0   60.0   16.666666666666668
-450.0   30.0   16.666666666666668
-450.0   30.0   0.0
-500.0   30.0   16.666666666666668
-450.0   60.0   16.666666666666668
-450.0   30.0   0.0
-500.0   60.0   0.0
-500.0   30.0   16.666666666666668
-450.0   30.0   16.666666666666668
-500.0   60.0   16.666666666666668
-500.0   30.0   33.333333333333336
-450.0   30.0   16.666666666666668
-450.0   60.0   16.666666666666668
-500.0   60.0   16.666666666666668
-450.0   60.0   33.333333333333336
-500.0   30.0   33.333333333333336
-500.0   60.0   33.333333333333336
-450.0   60.0   33.333333333333336
-500.0   60.0   16.666666666666668
-500.0   30.0   33.333333333333336
-450.0   60.0   33.333333333333336
-450.0   30.0   33.333333333333336
-450.0   30.0   16.666666666666668
-500.0   30.0   33.333333333333336
-450.0   60.0   33.333333333333336
-450.0   30.0   16.666666666666668
-500.0   60.0   16.666666666666668
-500.0   30.0   33.333333333333336
-450.0   30.0   33.333333333333336
-500.0   60.0   33.333333333333336
-500.0   30.0   50.0
-450.0   30.0   33.333333333333336
-450.0   60.0   33.333333333333336
-500.0   60.0   33.333333333333336
-450.0   60.0   50.0
-500.0   30.0   50.0
-500.0   60.0   50.0
-450.0   60.0   50.0
-500.0   60.0   33.333333333333336
-500.0   30.0   50.0
-450.0   60.0   50.0
-450.0   30.0   50.0
-450.0   30.0   33.333333333333336
-500.0   30.0   50.0
-450.0   60.0   50.0
-450.0   30.0   33.333333333333336
-500.0   60.0   33.333333333333336
-500.0   60.0   0.0
-450.0   60.0   0.0
-500.0   90.0   0.0
-500.0   60.0   16.666666666666668
-450.0   60.0   0.0
-450.0   90.0   0.0
-500.0   90.0   0.0
-450.0   90.0   16.666666666666668
-500.0   60.0   16.666666666666668
-500.0   90.0   16.666666666666668
-450.0   90.0   16.666666666666668
-500.0   90.0   0.0
-500.0   60.0   16.666666666666668
-450.0   90.0   16.666666666666668
-450.0   60.0   16.666666666666668
-450.0   60.0   0.0
-500.0   60.0   16.666666666666668
-450.0   90.0   16.666666666666668
-450.0   60.0   0.0
-500.0   90.0   0.0
-500.0   60.0   16.666666666666668
-450.0   60.0   16.666666666666668
-500.0   90.0   16.666666666666668
-500.0   60.0   33.333333333333336
-450.0   60.0   16.666666666666668
-450.0   90.0   16.666666666666668
-500.0   90.0   16.666666666666668
-450.0   90.0   33.333333333333336
-500.0   60.0   33.333333333333336
-500.0   90.0   33.333333333333336
-450.0   90.0   33.333333333333336
-500.0   90.0   16.666666666666668
-500.0   60.0   33.333333333333336
-450.0   90.0   33.333333333333336
-450.0   60.0   33.333333333333336
-450.0   60.0   16.666666666666668
-500.0   60.0   33.333333333333336
-450.0   90.0   33.333333333333336
-450.0   60.0   16.666666666666668
-500.0   90.0   16.666666666666668
-500.0   60.0   33.333333333333336
-450.0   60.0   33.333333333333336
-500.0   90.0   33.333333333333336
-500.0   60.0   50.0
-450.0   60.0   33.333333333333336
-450.0   90.0   33.333333333333336
-500.0   90.0   33.333333333333336
-450.0   90.0   50.0
-500.0   60.0   50.0
-500.0   90.0   50.0
-450.0   90.0   50.0
-500.0   90.0   33.333333333333336
-500.0   60.0   50.0
-450.0   90.0   50.0
-450.0   60.0   50.0
-450.0   60.0   33.333333333333336
-500.0   60.0   50.0
-450.0   90.0   50.0
-450.0   60.0   33.333333333333336
-500.0   90.0   33.333333333333336
-500.0   90.0   0.0
-450.0   90.0   0.0
-500.0   120.0   0.0
-500.0   90.0   16.666666666666668
-450.0   90.0   0.0
-450.0   120.0   0.0
-500.0   120.0   0.0
-450.0   120.0   16.666666666666668
-500.0   90.0   16.666666666666668
-500.0   120.0   16.666666666666668
-450.0   120.0   16.666666666666668
-500.0   120.0   0.0
-500.0   90.0   16.666666666666668
-450.0   120.0   16.666666666666668
-450.0   90.0   16.666666666666668
-450.0   90.0   0.0
-500.0   90.0   16.666666666666668
-450.0   120.0   16.666666666666668
-450.0   90.0   0.0
-500.0   120.0   0.0
-500.0   90.0   16.666666666666668
-450.0   90.0   16.666666666666668
-500.0   120.0   16.666666666666668
-500.0   90.0   33.333333333333336
-450.0   90.0   16.666666666666668
-450.0   120.0   16.666666666666668
-500.0   120.0   16.666666666666668
-450.0   120.0   33.333333333333336
-500.0   90.0   33.333333333333336
-500.0   120.0   33.333333333333336
-450.0   120.0   33.333333333333336
-500.0   120.0   16.666666666666668
-500.0   90.0   33.333333333333336
-450.0   120.0   33.333333333333336
-450.0   90.0   33.333333333333336
-450.0   90.0   16.666666666666668
-500.0   90.0   33.333333333333336
-450.0   120.0   33.333333333333336
-450.0   90.0   16.666666666666668
-500.0   120.0   16.666666666666668
-500.0   90.0   33.333333333333336
-450.0   90.0   33.333333333333336
-500.0   120.0   33.333333333333336
-500.0   90.0   50.0
-450.0   90.0   33.333333333333336
-450.0   120.0   33.333333333333336
-500.0   120.0   33.333333333333336
-450.0   120.0   50.0
-500.0   90.0   50.0
-500.0   120.0   50.0
-450.0   120.0   50.0
-500.0   120.0   33.333333333333336
-500.0   90.0   50.0
-450.0   120.0   50.0
-450.0   90.0   50.0
-450.0   90.0   33.333333333333336
-500.0   90.0   50.0
-450.0   120.0   50.0
-450.0   90.0   33.333333333333336
-500.0   120.0   33.333333333333336
-500.0   120.0   0.0
-450.0   120.0   0.0
-500.0   150.0   0.0
-500.0   120.0   16.666666666666668
-450.0   120.0   0.0
-450.0   150.0   0.0
-500.0   150.0   0.0
-450.0   150.0   16.666666666666668
-500.0   120.0   16.666666666666668
-500.0   150.0   16.666666666666668
-450.0   150.0   16.666666666666668
-500.0   150.0   0.0
-500.0   120.0   16.666666666666668
-450.0   150.0   16.666666666666668
-450.0   120.0   16.666666666666668
-450.0   120.0   0.0
-500.0   120.0   16.666666666666668
-450.0   150.0   16.666666666666668
-450.0   120.0   0.0
-500.0   150.0   0.0
-500.0   120.0   16.666666666666668
-450.0   120.0   16.666666666666668
-500.0   150.0   16.666666666666668
-500.0   120.0   33.333333333333336
-450.0   120.0   16.666666666666668
-450.0   150.0   16.666666666666668
-500.0   150.0   16.666666666666668
-450.0   150.0   33.333333333333336
-500.0   120.0   33.333333333333336
-500.0   150.0   33.333333333333336
-450.0   150.0   33.333333333333336
-500.0   150.0   16.666666666666668
-500.0   120.0   33.333333333333336
-450.0   150.0   33.333333333333336
-450.0   120.0   33.333333333333336
-450.0   120.0   16.666666666666668
-500.0   120.0   33.333333333333336
-450.0   150.0   33.333333333333336
-450.0   120.0   16.666666666666668
-500.0   150.0   16.666666666666668
-500.0   120.0   33.333333333333336
-450.0   120.0   33.333333333333336
-500.0   150.0   33.333333333333336
-500.0   120.0   50.0
-450.0   120.0   33.333333333333336
-450.0   150.0   33.333333333333336
-500.0   150.0   33.333333333333336
-450.0   150.0   50.0
-500.0   120.0   50.0
-500.0   150.0   50.0
-450.0   150.0   50.0
-500.0   150.0   33.333333333333336
-500.0   120.0   50.0
-450.0   150.0   50.0
-450.0   120.0   50.0
-450.0   120.0   33.333333333333336
-500.0   120.0   50.0
-450.0   150.0   50.0
-450.0   120.0   33.333333333333336
-500.0   150.0   33.333333333333336
-450.0   0.0   0.0
-400.0   0.0   0.0
-450.0   30.0   0.0
-450.0   0.0   16.666666666666668
-400.0   0.0   0.0
-400.0   30.0   0.0
-450.0   30.0   0.0
-400.0   30.0   16.666666666666668
-450.0   0.0   16.666666666666668
-450.0   30.0   16.666666666666668
-400.0   30.0   16.666666666666668
-450.0   30.0   0.0
-450.0   0.0   16.666666666666668
-400.0   30.0   16.666666666666668
-400.0   0.0   16.666666666666668
-400.0   0.0   0.0
-450.0   0.0   16.666666666666668
-400.0   30.0   16.666666666666668
-400.0   0.0   0.0
-450.0   30.0   0.0
-450.0   0.0   16.666666666666668
-400.0   0.0   16.666666666666668
-450.0   30.0   16.666666666666668
[...]
          <PointData>  
             <DataArray type="Float64" NumberOfComponents="3" Name="Strains" format="ascii">   
-0.0005011819720589003   0.0   -0.0003277998272557126
-0.0005011819720589003   0.0   -0.0003277998272557126
-0.0005011819720589003   0.0   -0.0003277998272557126
-0.0005011819720589003   0.0   -0.0003277998272557126
-0.00031902326036757297   5.56708648758109e-05   9.200544488652197e-06
-0.00031902326036757297   5.56708648758109e-05   9.200544488652197e-06
-0.00031902326036757297   5.56708648758109e-05   9.200544488652197e-06
-0.00031902326036757297   5.56708648758109e-05   9.200544488652197e-06
-0.0003127920396555776   0.0   -0.00030922996681309275
-0.0003127920396555776   0.0   -0.00030922996681309275
-0.0003127920396555776   0.0   -0.00030922996681309275
-0.0003127920396555776   0.0   -0.00030922996681309275
-0.000524607141400173   6.673653817811445e-05   3.753279854365704e-06
-0.000524607141400173   6.673653817811445e-05   3.753279854365704e-06
-0.000524607141400173   6.673653817811445e-05   3.753279854365704e-06
-0.000524607141400173   6.673653817811445e-05   3.753279854365704e-06
-0.00040698700585723824   1.5474883702183174e-05   -0.00016152328669829993
-0.00040698700585723824   1.5474883702183174e-05   -0.00016152328669829993
-0.00040698700585723824   1.5474883702183174e-05   -0.00016152328669829993
-0.00040698700585723824   1.5474883702183174e-05   -0.00016152328669829993
-0.0005246071414001739   0.0   -0.0003492718897199615
-0.0005246071414001739   0.0   -0.0003492718897199615
-0.0005246071414001739   0.0   -0.0003492718897199615
-0.0005246071414001739   0.0   -0.0003492718897199615
-0.0003127920396555776   6.673653817811456e-05   4.3795202761234353e-05
-0.0003127920396555776   6.673653817811456e-05   4.3795202761234353e-05
-0.0003127920396555776   6.673653817811456e-05   4.3795202761234353e-05
-0.0003127920396555776   6.673653817811456e-05   4.3795202761234353e-05
-0.0003137585413186847   0.0   -0.0003168215397771156
-0.0003137585413186847   0.0   -0.0003168215397771156
-0.0003137585413186847   0.0   -0.0003168215397771156
-0.0003137585413186847   0.0   -0.0003168215397771156
-0.0005410971421604665   7.147870916803108e-05   1.9188902791703543e-05
-0.0005410971421604665   7.147870916803108e-05   1.9188902791703543e-05
-0.0005410971421604665   7.147870916803108e-05   1.9188902791703543e-05
-0.0005410971421604665   7.147870916803108e-05   1.9188902791703543e-05
-0.00041918284135942856   2.7041958285704858e-05   -0.0001573395480139638
-0.00041918284135942856   2.7041958285704858e-05   -0.0001573395480139638
-0.00041918284135942856   2.7041958285704858e-05   -0.0001573395480139638
-0.00041918284135942856   2.7041958285704858e-05   -0.0001573395480139638
-0.0005410971421604675   0.0   -0.00035970876527793437
-0.0005410971421604675   0.0   -0.00035970876527793437
-0.0005410971421604675   0.0   -0.00035970876527793437
-0.0005410971421604675   0.0   -0.00035970876527793437
-0.0003137585413186847   7.147870916803119e-05   6.207612829252232e-05
-0.0003137585413186847   7.147870916803119e-05   6.207612829252232e-05
-0.0003137585413186847   7.147870916803119e-05   6.207612829252232e-05
-0.0003137585413186847   7.147870916803119e-05   6.207612829252232e-05
-0.00031368873456634347   0.0   -0.00031875896655681043
-0.00031368873456634347   0.0   -0.00031875896655681043
-0.00031368873456634347   0.0   -0.00031875896655681043
-0.00031368873456634347   0.0   -0.00031875896655681043
-0.0005765374159250253   8.136821569207343e-05   7.050123962575006e-05
-0.0005765374159250253   8.136821569207343e-05   7.050123962575006e-05
-0.0005765374159250253   8.136821569207343e-05   7.050123962575006e-05
-0.0005765374159250253   8.136821569207343e-05   7.050123962575006e-05
-0.00042739293836340474   3.4124832267603265e-05   -0.0001497268595889354
-0.00042739293836340474   3.4124832267603265e-05   -0.0001497268595889354
-0.00042739293836340474   3.4124832267603265e-05   -0.0001497268595889354
-0.00042739293836340474   3.4124832267603265e-05   -0.0001497268595889354
-0.0003190232603675735   0.0   -0.00029439730833022605
-0.0003190232603675735   0.0   -0.00029439730833022605
-0.0003190232603675735   0.0   -0.00029439730833022605
-0.0003190232603675735   0.0   -0.00029439730833022605
-0.00014518734696939147   2.044673173706897e-05   7.5972530423186e-06
-0.00014518734696939147   2.044673173706897e-05   7.5972530423186e-06
-0.00014518734696939147   2.044673173706897e-05   7.5972530423186e-06
-0.00014518734696939147   2.044673173706897e-05   7.5972530423186e-06
-0.0001397213692415483   0.0   -0.00029179363161376784
-0.0001397213692415483   0.0   -0.00029179363161376784
-0.0001397213692415483   0.0   -0.00029179363161376784
-0.0001397213692415483   0.0   -0.00029179363161376784
-0.0003127920396555776   2.906055866554153e-05   -2.077884945637736e-05
-0.0003127920396555776   2.906055866554153e-05   -2.077884945637736e-05
-0.0003127920396555776   2.906055866554153e-05   -2.077884945637736e-05
-0.0003127920396555776   2.906055866554153e-05   -2.077884945637736e-05
-0.0002293723148045605   2.169730597048489e-06   -0.0001436772273669755
-0.0002293723148045605   2.169730597048489e-06   -0.0001436772273669755
-0.0002293723148045605   2.169730597048489e-06   -0.0001436772273669755
-0.0002293723148045605   2.169730597048489e-06   -0.0001436772273669755
-0.0003127920396555773   0.0   -0.0003092299668130925
-0.0003127920396555773   0.0   -0.0003092299668130925
-0.0003127920396555773   0.0   -0.0003092299668130925
-0.0003127920396555773   0.0   -0.0003092299668130925
-0.0001397213692415483   2.906055866554153e-05   -3.3425142570523705e-06
-0.0001397213692415483   2.906055866554153e-05   -3.3425142570523705e-06
-0.0001397213692415483   2.906055866554153e-05   -3.3425142570523705e-06
-0.0001397213692415483   2.906055866554153e-05   -3.3425142570523705e-06
-0.00013668599731683854   0.0   -0.0002954738773250979
-0.00013668599731683854   0.0   -0.0002954738773250979
-0.00013668599731683854   0.0   -0.0002954738773250979
-0.00013668599731683854   0.0   -0.0002954738773250979
-0.0003137585413186847   3.5579437420029444e-05   -2.1700633107372014e-05
-0.0003137585413186847   3.5579437420029444e-05   -2.1700633107372014e-05
-0.0003137585413186847   3.5579437420029444e-05   -2.1700633107372014e-05
-0.0003137585413186847   3.5579437420029444e-05   -2.1700633107372014e-05
-0.0002247390184862076   1.1463407906662354e-05   -0.00015559688678681228
-0.0002247390184862076   1.1463407906662354e-05   -0.00015559688678681228
-0.0002247390184862076   1.1463407906662354e-05   -0.00015559688678681228
-0.0002247390184862076   1.1463407906662354e-05   -0.00015559688678681228
-0.0003137585413186847   0.0   -0.0003168215397771156
-0.0003137585413186847   0.0   -0.0003168215397771156
-0.0003137585413186847   0.0   -0.0003168215397771156
-0.0003137585413186847   0.0   -0.0003168215397771156
-0.00013668599731683854   3.5579437420029444e-05   -3.529706553543916e-07
-0.00013668599731683854   3.5579437420029444e-05   -3.529706553543916e-07
-0.00013668599731683854   3.5579437420029444e-05   -3.529706553543916e-07
-0.00013668599731683854   3.5579437420029444e-05   -3.529706553543916e-07
-0.000133935991329835   0.0   -0.0002939304776691068
-0.000133935991329835   0.0   -0.0002939304776691068
-0.000133935991329835   0.0   -0.0002939304776691068
-0.000133935991329835   0.0   -0.0002939304776691068
-0.00031368873456634266   4.138081481283888e-05   -1.917106116262944e-05
-0.00031368873456634266   4.138081481283888e-05   -1.917106116262944e-05
-0.00031368873456634266   4.138081481283888e-05   -1.917106116262944e-05
-0.00031368873456634266   4.138081481283888e-05   -1.917106116262944e-05
-0.00022384726632425974   1.9075885090007107e-05   -0.00015552388373240317
-0.00022384726632425974   1.9075885090007107e-05   -0.00015552388373240317
-0.00022384726632425974   1.9075885090007107e-05   -0.00015552388373240317
-0.00022384726632425974   1.9075885090007107e-05   -0.00015552388373240317
-0.00014518734696939174   0.0   -0.00028212926928798465
-0.00014518734696939174   0.0   -0.00028212926928798465
-0.00014518734696939174   0.0   -0.00028212926928798465
-0.00014518734696939174   0.0   -0.00028212926928798465
1.9127042894878443e-05   -2.597814654195518e-06   -9.830641640051379e-06
1.9127042894878443e-05   -2.597814654195518e-06   -9.830641640051379e-06
1.9127042894878443e-05   -2.597814654195518e-06   -9.830641640051379e-06
1.9127042894878443e-05   -2.597814654195518e-06   -9.830641640051379e-06
2.257685597125902e-05   0.0   -0.00028870813625989474
2.257685597125902e-05   0.0   -0.00028870813625989474
2.257685597125902e-05   0.0   -0.00028870813625989474
2.257685597125902e-05   0.0   -0.00028870813625989474
-0.00013972136924154805   5.1424922564535075e-06   -2.129658959242216e-05
-0.00013972136924154805   5.1424922564535075e-06   -2.129658959242216e-05
-0.00013972136924154805   5.1424922564535075e-06   -2.129658959242216e-05
-0.00013972136924154805   5.1424922564535075e-06   -2.129658959242216e-05
-6.13052454990661e-05   -5.4823891432592415e-06   -0.00014561520032339723
-6.13052454990661e-05   -5.4823891432592415e-06   -0.00014561520032339723
-6.13052454990661e-05   -5.4823891432592415e-06   -0.00014561520032339723
-6.13052454990661e-05   -5.4823891432592415e-06   -0.00014561520032339723
-0.0001397213692415483   0.0   -0.00029179363161376784
-0.0001397213692415483   0.0   -0.00029179363161376784
-0.0001397213692415483   0.0   -0.00029179363161376784
-0.0001397213692415483   0.0   -0.00029179363161376784
2.2576855971259058e-05   5.1424922564535075e-06   -1.8211094238550068e-05
2.2576855971259058e-05   5.1424922564535075e-06   -1.8211094238550068e-05
2.2576855971259058e-05   5.1424922564535075e-06   -1.8211094238550068e-05
2.2576855971259058e-05   5.1424922564535075e-06   -1.8211094238550068e-05
2.528851521239306e-05   0.0   -0.0002883015749884747
2.528851521239306e-05   0.0   -0.0002883015749884747
2.528851521239306e-05   0.0   -0.0002883015749884747
2.528851521239306e-05   0.0   -0.0002883015749884747
-0.00013668599731683805   1.1953837227704359e-05   -2.551635644304514e-05
-0.00013668599731683805   1.1953837227704359e-05   -2.551635644304514e-05
-0.00013668599731683805   1.1953837227704359e-05   -2.551635644304514e-05
-0.00013668599731683805   1.1953837227704359e-05   -2.551635644304514e-05
-5.7216427014577495e-05   2.9100471877438222e-06   -0.00015253936625617002
-5.7216427014577495e-05   2.9100471877438222e-06   -0.00015253936625617002
-5.7216427014577495e-05   2.9100471877438222e-06   -0.00015253936625617002
-5.7216427014577495e-05   2.9100471877438222e-06   -0.00015253936625617002
-0.00013668599731683854   0.0   -0.0002954738773250979
-0.00013668599731683854   0.0   -0.0002954738773250979
-0.00013668599731683854   0.0   -0.0002954738773250979
-0.00013668599731683854   0.0   -0.0002954738773250979
2.5288515212393103e-05   1.1953837227704522e-05   -1.8344054106422575e-05
2.5288515212393103e-05   1.1953837227704522e-05   -1.8344054106422575e-05
2.5288515212393103e-05   1.1953837227704522e-05   -1.8344054106422575e-05
2.5288515212393103e-05   1.1953837227704522e-05   -1.8344054106422575e-05
2.8965073730173115e-05   0.0   -0.0002820216013778927
2.8965073730173115e-05   0.0   -0.0002820216013778927
2.8965073730173115e-05   0.0   -0.0002820216013778927
2.8965073730173115e-05   0.0   -0.0002820216013778927
-0.00013393599132983467   1.984812715202306e-05   -2.242870256909327e-05
-0.00013393599132983467   1.984812715202306e-05   -2.242870256909327e-05
-0.00013393599132983467   1.984812715202306e-05   -2.242870256909327e-05
-0.00013393599132983467   1.984812715202306e-05   -2.242870256909327e-05
-5.3860461793332594e-05   1.1210229956003915e-05   -0.00015070518014565214
-5.3860461793332594e-05   1.1210229956003915e-05   -0.00015070518014565214
-5.3860461793332594e-05   1.1210229956003915e-05   -0.00015070518014565214
-5.3860461793332594e-05   1.1210229956003915e-05   -0.00015070518014565214
1.9127042894878477e-05   0.0   -0.00028368795808050195
1.9127042894878477e-05   0.0   -0.00028368795808050195
1.9127042894878477e-05   0.0   -0.00028368795808050195
1.9127042894878477e-05   0.0   -0.00028368795808050195
0.0001974160446319632   -2.315444105218474e-05   -4.322864833380003e-07
0.0001974160446319632   -2.315444105218474e-05   -4.322864833380003e-07
0.0001974160446319632   -2.315444105218474e-05   -4.322864833380003e-07
0.0001974160446319632   -2.315444105218474e-05   -4.322864833380003e-07
0.00019765807827834905   0.0   -0.0002991956362844266
0.00019765807827834905   0.0   -0.0002991956362844266
0.00019765807827834905   0.0   -0.0002991956362844266
0.00019765807827834905   0.0   -0.0002991956362844266
2.25768559712591e-05   -1.747916670755145e-05   3.0939009185874727e-06
2.25768559712591e-05   -1.747916670755145e-05   3.0939009185874727e-06
2.25768559712591e-05   -1.747916670755145e-05   3.0939009185874727e-06
2.25768559712591e-05   -1.747916670755145e-05   3.0939009185874727e-06
0.00010839256058661377   -1.2923065169937234e-05   -0.00014266593436290537
0.00010839256058661377   -1.2923065169937234e-05   -0.00014266593436290537
0.00010839256058661377   -1.2923065169937234e-05   -0.00014266593436290537
0.00010839256058661377   -1.2923065169937234e-05   -0.00014266593436290537
2.25768559712591e-05   0.0   -0.0002887081362598957
2.25768559712591e-05   0.0   -0.0002887081362598957
2.25768559712591e-05   0.0   -0.0002887081362598957
2.25768559712591e-05   0.0   -0.0002887081362598957
0.00019765807827834905   -1.747916670755145e-05   -7.393599105943419e-06
0.00019765807827834905   -1.747916670755145e-05   -7.393599105943419e-06
0.00019765807827834905   -1.747916670755145e-05   -7.393599105943419e-06
0.00019765807827834905   -1.747916670755145e-05   -7.393599105943419e-06
0.00019671759870255073   0.0   -0.000294922454635641
0.00019671759870255073   0.0   -0.000294922454635641
0.00019671759870255073   0.0   -0.000294922454635641
0.00019671759870255073   0.0   -0.000294922454635641
2.5288515212393103e-05   -1.103479941194299e-05   -2.5864358382125715e-06
2.5288515212393103e-05   -1.103479941194299e-05   -2.5864358382125715e-06
2.5288515212393103e-05   -1.103479941194299e-05   -2.5864358382125715e-06
2.5288515212393103e-05   -1.103479941194299e-05   -2.5864358382125715e-06
0.00010964722733690492   -5.1785986464543995e-06   -0.00014669800983835857
0.00010964722733690492   -5.1785986464543995e-06   -0.00014669800983835857
0.00010964722733690492   -5.1785986464543995e-06   -0.00014669800983835857
0.00010964722733690492   -5.1785986464543995e-06   -0.00014669800983835857
2.5288515212393082e-05   0.0   -0.000288301574988475
2.5288515212393082e-05   0.0   -0.000288301574988475
2.5288515212393082e-05   0.0   -0.000288301574988475
2.5288515212393082e-05   0.0   -0.000288301574988475
0.00019671759870255073   -1.103479941194299e-05   -9.20731548537839e-06
0.00019671759870255073   -1.103479941194299e-05   -9.20731548537839e-06
0.00019671759870255073   -1.103479941194299e-05   -9.20731548537839e-06
0.00019671759870255073   -1.103479941194299e-05   -9.20731548537839e-06
0.00020043716404873782   0.0   -0.0002834431718964192
0.00020043716404873782   0.0   -0.0002834431718964192
0.00020043716404873782   0.0   -0.0002834431718964192
0.00020043716404873782   0.0   -0.0002834431718964192
2.8965073730173166e-05   -2.369284197543378e-06   3.7652158197144984e-06
2.8965073730173166e-05   -2.369284197543378e-06   3.7652158197144984e-06
2.8965073730173166e-05   -2.369284197543378e-06   3.7652158197144984e-06
2.8965073730173166e-05   -2.369284197543378e-06   3.7652158197144984e-06
0.00011286283963056537   4.048669243380019e-06   -0.00013991516607882642
0.00011286283963056537   4.048669243380019e-06   -0.00013991516607882642
0.00011286283963056537   4.048669243380019e-06   -0.00013991516607882642
0.00011286283963056537   4.048669243380019e-06   -0.00013991516607882642
0.0001974160446319632   0.0   -0.00029758062271181276
0.0001974160446319632   0.0   -0.00029758062271181276
0.0001974160446319632   0.0   -0.00029758062271181276
0.0001974160446319632   0.0   -0.00029758062271181276
0.0004451185579855896   -5.862306914421601e-05   8.008305805770393e-05
0.0004451185579855896   -5.862306914421601e-05   8.008305805770393e-05
0.0004451185579855896   -5.862306914421601e-05   8.008305805770393e-05
0.0004451185579855896   -5.862306914421601e-05   8.008305805770393e-05
0.0004178965685776647   0.0   -0.0003291575225407455
0.0004178965685776647   0.0   -0.0003291575225407455
0.0004178965685776647   0.0   -0.0003291575225407455
0.0004178965685776647   0.0   -0.0003291575225407455
0.00019765807827834905   -4.993647709386484e-05   6.786851421443276e-05
0.00019765807827834905   -4.993647709386484e-05   6.786851421443276e-05
0.00019765807827834905   -4.993647709386484e-05   6.786851421443276e-05
0.00019765807827834905   -4.993647709386484e-05   6.786851421443276e-05
0.000307656306604814   -2.6314083190777284e-05   -0.00012963530267152772
0.000307656306604814   -2.6314083190777284e-05   -0.00012963530267152772
0.000307656306604814   -2.6314083190777284e-05   -0.00012963530267152772
0.000307656306604814   -2.6314083190777284e-05   -0.00012963530267152772
0.0001976580782783489   0.0   -0.0002991956362844264
0.0001976580782783489   0.0   -0.0002991956362844264
0.0001976580782783489   0.0   -0.0002991956362844264
0.0001976580782783489   0.0   -0.0002991956362844264
0.00041789656857766326   -4.993647709386462e-05   3.790662795811377e-05
0.00041789656857766326   -4.993647709386462e-05   3.790662795811377e-05
0.00041789656857766326   -4.993647709386462e-05   3.790662795811377e-05
0.00041789656857766326   -4.993647709386462e-05   3.790662795811377e-05
0.0004053009896452297   0.0   -0.0003223131277559162
0.0004053009896452297   0.0   -0.0003223131277559162
0.0004053009896452297   0.0   -0.0003223131277559162
0.0004053009896452297   0.0   -0.0003223131277559162
0.00019671759870255073   -4.565112186712529e-05   5.2716530268823874e-05
0.00019671759870255073   -4.565112186712529e-05   5.2716530268823874e-05
0.00019671759870255073   -4.565112186712529e-05   5.2716530268823874e-05
0.00019671759870255073   -4.565112186712529e-05   5.2716530268823874e-05
0.0003014795339617892   -1.926457622624132e-05   -0.00013771862254777063
0.0003014795339617892   -1.926457622624132e-05   -0.00013771862254777063
0.0003014795339617892   -1.926457622624132e-05   -0.00013771862254777063
0.0003014795339617892   -1.926457622624132e-05   -0.00013771862254777063
0.00019671759870255073   0.0   -0.000294922454635641
0.00019671759870255073   0.0   -0.000294922454635641
0.00019671759870255073   0.0   -0.000294922454635641
0.00019671759870255073   0.0   -0.000294922454635641
0.0004053009896452283   -4.5651121867125184e-05   2.5325857148548515e-05
0.0004053009896452283   -4.5651121867125184e-05   2.5325857148548515e-05
0.0004053009896452283   -4.5651121867125184e-05   2.5325857148548515e-05
0.0004053009896452283   -4.5651121867125184e-05   2.5325857148548515e-05
0.00038661537334422396   0.0   -0.0003047724664316207
0.00038661537334422396   0.0   -0.0003047724664316207
0.00038661537334422396   0.0   -0.0003047724664316207
0.00038661537334422396   0.0   -0.0003047724664316207
0.00020043716404873782   -3.554882422533663e-05   2.6853843596058807e-05
0.00020043716404873782   -3.554882422533663e-05   2.6853843596058807e-05
0.00020043716404873782   -3.554882422533663e-05   2.6853843596058807e-05
0.00020043716404873782   -3.554882422533663e-05   2.6853843596058807e-05
0.0002916664860233877   -8.208343163316773e-06   -0.0001415993149989027
0.0002916664860233877   -8.208343163316773e-06   -0.0001415993149989027
0.0002916664860233877   -8.208343163316773e-06   -0.0001415993149989027
0.0002916664860233877   -8.208343163316773e-06   -0.0001415993149989027
-0.0004356807569076092   5.5670864875810794e-05   -0.0002851134954218041
-0.0004356807569076092   5.5670864875810794e-05   -0.0002851134954218041
-0.0004356807569076092   5.5670864875810794e-05   -0.0002851134954218041